LAMMPS (2 Aug 2023 - Development - patch_2Aug2023-439-g49f08e6231)
OMP_NUM_THREADS environment is not set. Defaulting to 1 thread. (src/comm.cpp:98)
  using 1 OpenMP thread(s) per MPI task
Reading data file ...
  orthogonal box = (-27.956921 -32.298732 -28.85231) to (27.956921 32.298732 28.85231)
  2 by 4 by 4 MPI processor grid
  reading atoms ...
  24020 atoms
  reading velocities ...
  24020 velocities
  scanning bonds ...
  3 = max bonds/atom
  scanning angles ...
  6 = max angles/atom
  scanning dihedrals ...
  27 = max dihedrals/atom
  reading bonds ...
  24010 bonds
  reading angles ...
  48000 angles
  reading dihedrals ...
  71910 dihedrals
Finding 1-2 1-3 1-4 neighbors ...
  special bond factors lj:    0        0        0.5     
  special bond factors coul:  0        0        0.8333333333333334
     4 = max # of 1-2 neighbors
    12 = max # of 1-3 neighbors
    24 = max # of 1-4 neighbors
    28 = max # of special neighbors
  special bonds CPU = 0.110 seconds
  read_data CPU = 0.672 seconds
PPPM initialization ...
  using 12-bit tables for long-range coulomb (src/kspace.cpp:342)
  G vector (1/distance) = 0.25883856
  grid = 45 50 45
  stencil order = 5
  estimated absolute RMS force accuracy = 0.0003737492
  estimated relative force accuracy = 1.1255346e-06
  using double precision FFTW3
  3d grid and FFT values/proc = 9918 4500
Generated 3 of 3 mixed pair_coeff terms from arithmetic mixing rule
Neighbor list info ...
  update: every = 1 steps, delay = 0 steps, check = yes
  max neighbors/atom: 2000, page size: 100000
  master list distance cutoff = 14
  ghost atom cutoff = 14
  binsize = 7, bins = 8 10 9
  1 neighbor lists, perpetual/occasional/extra = 1 0 0
  (1) pair lj/charmm/coul/long, perpetual
      attributes: half, newton on
      pair build: half/bin/newton
      stencil: half/bin/3d
      bin: standard
Setting up Verlet run ...
  Unit style    : real
  Current step  : 0
  Time step     : 1
Per MPI rank memory allocation (min/avg/max) = 21.64 | 21.99 | 22.2 Mbytes
   Step          Time           Temp         Temp_hot      Temp_cold        Press         Enthalpy        TotEng         KinEng         PotEng    
         0   0              299.31856      290.67743      297.24622      529.8002      -86442.089     -88052.488      21430.034     -109482.52    
      1000   1000           298.4305       288.23961      305.72416      197.31813     -87453.057     -88052.832      21366.453     -109419.28    
      2000   2000           298.89996      290.95326      306.38667     -303.14149     -88979.205     -88057.766      21400.064     -109457.83    
      3000   3000           301.61727      290.94897      303.10136     -130.11563     -88459.098     -88063.594      21594.613     -109658.21    
      4000   4000           298.25845      296.23027      300.83717      106.7854      -87731.653     -88056.242      21354.134     -109410.38    
      5000   5000           298.84073      300.69666      287.94795     -284.27472     -88911.752     -88047.661      21395.824     -109443.48    
      6000   6000           299.47001      294.43165      296.49741      434.12065     -86743.031     -88062.599      21440.878     -109503.48    
      7000   7000           298.37277      291.36395      298.42323     -35.045455     -88161.82      -88055.295      21362.32      -109417.61    
      8000   8000           298.86132      296.49489      302.24346      249.56809     -87298.095     -88056.691      21397.298     -109453.99    
      9000   9000           298.65159      299.45475      298.51352     -32.826304     -88154.793     -88055.013      21382.282     -109437.3     
     10000   10000          299.44555      302.71863      298.56407      210.20371     -87419.091     -88058.033      21439.126     -109497.16    
Loop time of 153.216 on 32 procs for 10000 steps with 24020 atoms

Performance: 5.639 ns/day, 4.256 hours/ns, 65.267 timesteps/s, 1.568 Matom-step/s
99.8% CPU use with 32 MPI tasks x 1 OpenMP threads

MPI task timing breakdown:
Section |  min time  |  avg time  |  max time  |%varavg| %total
---------------------------------------------------------------
Pair    | 98.858     | 111.32     | 121.81     |  52.2 | 72.66
Bond    | 2.9673     | 3.3576     | 3.8613     |  10.2 |  2.19
Kspace  | 16.189     | 27.125     | 39.927     | 108.2 | 17.70
Neigh   | 7.053      | 7.0692     | 7.0828     |   0.4 |  4.61
Comm    | 3.4312     | 3.7092     | 3.9392     |   5.8 |  2.42
Output  | 0.0010334  | 0.0012446  | 0.0031421  |   1.0 |  0.00
Modify  | 0.10608    | 0.11402    | 0.12843    |   1.8 |  0.07
Other   |            | 0.515      |            |       |  0.34

Nlocal:        750.625 ave         797 max         715 min
Histogram: 5 1 3 4 8 3 3 2 1 2
Nghost:          11324 ave       11448 max       11165 min
Histogram: 2 0 2 4 3 7 5 4 2 3
Neighs:         497018 ave      534126 max      462194 min
Histogram: 4 4 1 2 5 2 5 5 1 3

Total # of neighbors = 15904587
Ave neighs/atom = 662.13934
Ave special neighs/atom = 11.983347
Neighbor list builds = 370
Dangerous builds = 0
WARNING: New thermo_style command, previous thermo_modify settings will be lost (src/output.cpp:904)
PPPM initialization ...
  using 12-bit tables for long-range coulomb (src/kspace.cpp:342)
  G vector (1/distance) = 0.25883856
  grid = 45 50 45
  stencil order = 5
  estimated absolute RMS force accuracy = 0.0003737492
  estimated relative force accuracy = 1.1255346e-06
  using double precision FFTW3
  3d grid and FFT values/proc = 9918 4500
Generated 3 of 3 mixed pair_coeff terms from arithmetic mixing rule
Setting up Verlet run ...
  Unit style    : real
  Current step  : 10000
  Time step     : 1
Per MPI rank memory allocation (min/avg/max) = 22.39 | 22.81 | 22.95 Mbytes
   Step          Time           Temp         Temp_hot      Temp_cold        E_hot          E_cold       dTemp_step       Press         Enthalpy        TotEng         KinEng         PotEng    
     10000   10000          299.44555      303.02981      298.56407     -0             -0              4.4657342      210.20371     -87419.091     -88058.033      21439.126     -109497.16    
     11000   11000          296.97301      342.3339       262.17607     -691.202        1110.5293      80.15783      -83.767905     -88722.277     -88467.653      21262.103     -109729.76    
     12000   12000          296.96242      348.73389      260.46363     -1062.5503      1491.342       88.270267      419.92231     -87196.729     -88473.139      21261.344     -109734.48    
     13000   13000          297.00935      340.02032      251.69792     -1246.584       1743.0595      88.322396     -116.78193     -88892.371     -88537.397      21264.704     -109802.1     
     14000   14000          295.09259      329.59965      250.59415     -1302.9249      1958.6437      79.005503     -22.61722      -88757.081     -88688.333      21127.471     -109815.8     
     15000   15000          294.30869      353.0066       245.57883     -1605.1272      2255.627       107.42777     -84.998622     -88933.635     -88675.27       21071.348     -109746.62    
     16000   16000          297.42105      362.76131      258.11136     -1849.4368      2311.4308      104.64995      35.563274     -88369.871     -88477.97       21294.18      -109772.15    
     17000   17000          295.73636      341.4239       249.5749      -1933.4041      2460.9186      91.849        -339.38486     -89562.616     -88531.01       21173.563     -109704.57    
     18000   18000          295.99692      351.9093       264.72938     -2095.0593      2657.0572      87.179911      910.60623     -85794.947     -88562.856      21192.218     -109755.07    
     19000   19000          296.83303      348.93157      239.43112     -2257.6795      2808.405       109.50045     -319.25082     -89521.652     -88551.246      21252.08      -109803.33    
     20000   20000          295.05039      354.07832      244.62295     -2274.3282      2981.548       109.45538     -690.49885     -90805.326     -88706.462      21124.451     -109830.91    
Loop time of 155.161 on 32 procs for 10000 steps with 24020 atoms

Performance: 5.568 ns/day, 4.310 hours/ns, 64.449 timesteps/s, 1.548 Matom-step/s
99.8% CPU use with 32 MPI tasks x 1 OpenMP threads

MPI task timing breakdown:
Section |  min time  |  avg time  |  max time  |%varavg| %total
---------------------------------------------------------------
Pair    | 99.891     | 111.52     | 121.31     |  53.9 | 71.88
Bond    | 2.989      | 3.3743     | 3.8448     |  10.2 |  2.17
Kspace  | 17.145     | 27.215     | 39.179     | 111.4 | 17.54
Neigh   | 7.0342     | 7.0495     | 7.0642     |   0.4 |  4.54
Comm    | 3.5153     | 3.7122     | 3.9409     |   6.2 |  2.39
Output  | 0.0013439  | 0.0014717  | 0.0032907  |   0.9 |  0.00
Modify  | 1.7241     | 1.9345     | 2.0683     |   5.4 |  1.25
Other   |            | 0.3507     |            |       |  0.23

Nlocal:        750.625 ave         788 max         714 min
Histogram: 3 4 3 2 2 6 3 4 2 3
Nghost:        11332.6 ave       11471 max       11166 min
Histogram: 2 0 1 5 4 8 3 5 1 3
Neighs:         496975 ave      527035 max      454033 min
Histogram: 3 1 3 1 4 5 2 2 7 4

Total # of neighbors = 15903196
Ave neighs/atom = 662.08143
Ave special neighs/atom = 11.983347
Neighbor list builds = 367
Dangerous builds = 0
PPPM initialization ...
  using 12-bit tables for long-range coulomb (src/kspace.cpp:342)
  G vector (1/distance) = 0.25883856
  grid = 45 50 45
  stencil order = 5
  estimated absolute RMS force accuracy = 0.0003737492
  estimated relative force accuracy = 1.1255346e-06
  using double precision FFTW3
  3d grid and FFT values/proc = 9918 4500
Generated 3 of 3 mixed pair_coeff terms from arithmetic mixing rule
Setting up Verlet run ...
  Unit style    : real
  Current step  : 20000
  Time step     : 1
Per MPI rank memory allocation (min/avg/max) = 22.64 | 23.06 | 23.2 Mbytes
   Step          Time           Temp         Temp_hot      Temp_cold        E_hot          E_cold       dTemp_step       Press         Enthalpy        TotEng         KinEng         PotEng    
     20000   20000          295.05039      355.4127       244.62295     -0             -0              110.78975     -690.49885     -90805.326     -88706.462      21124.451     -109830.91    
     21000   21000          291.72092      339.03915      262.85274      6.1393393      129.20643      76.186411     -119.22748     -89194.535     -88832.127      20886.073     -109718.2     
Loop time of 15.432 on 32 procs for 1000 steps with 24020 atoms

Performance: 5.599 ns/day, 4.287 hours/ns, 64.800 timesteps/s, 1.557 Matom-step/s
99.8% CPU use with 32 MPI tasks x 1 OpenMP threads

MPI task timing breakdown:
Section |  min time  |  avg time  |  max time  |%varavg| %total
---------------------------------------------------------------
Pair    | 10.162     | 11.126     | 12.123     |  16.3 | 72.10
Bond    | 0.29729    | 0.33647    | 0.38312    |   3.3 |  2.18
Kspace  | 1.5997     | 2.636      | 3.635      |  34.2 | 17.08
Neigh   | 0.72276    | 0.72441    | 0.72604    |   0.1 |  4.69
Comm    | 0.35085    | 0.37197    | 0.39256    |   1.9 |  2.41
Output  | 0.00012367 | 0.00013082 | 0.00027925 |   0.0 |  0.00
Modify  | 0.1841     | 0.20229    | 0.21182    |   1.5 |  1.31
Other   |            | 0.03489    |            |       |  0.23

Nlocal:        750.625 ave         785 max         711 min
Histogram: 1 2 4 4 3 4 5 3 2 4
Nghost:        11319.6 ave       11427 max       11166 min
Histogram: 2 1 1 2 5 4 6 4 3 4
Neighs:         497015 ave      527072 max      457964 min
Histogram: 3 1 3 2 3 5 2 4 4 5

Total # of neighbors = 15904488
Ave neighs/atom = 662.13522
Ave special neighs/atom = 11.983347
Neighbor list builds = 38
Dangerous builds = 0
WARNING: New thermo_style command, previous thermo_modify settings will be lost (src/output.cpp:904)
PPPM initialization ...
  using 12-bit tables for long-range coulomb (src/kspace.cpp:342)
  G vector (1/distance) = 0.25883856
  grid = 45 50 45
  stencil order = 5
  estimated absolute RMS force accuracy = 0.0003737492
  estimated relative force accuracy = 1.1255346e-06
  using double precision FFTW3
  3d grid and FFT values/proc = 9918 4500
Generated 3 of 3 mixed pair_coeff terms from arithmetic mixing rule
Setting up Verlet run ...
  Unit style    : real
  Current step  : 21000
  Time step     : 1
Per MPI rank memory allocation (min/avg/max) = 22.89 | 23.31 | 23.45 Mbytes
   Step          Time          kappa        kappa_inst      Temp_hot      Temp_cold      dTemp_step       dTemp           Temp          Press         Enthalpy        TotEng         KinEng         PotEng    
     21000   21000          0              0              338.80881      262.85274      75.95607       95.259994      291.72092     -119.22748     -89194.535     -88832.127      20886.073     -109718.2     
     22000   22000          0.29446954     0.27104791     345.08441      243.58958      101.49483      93.422099      293.76282     -164.8598      -89252.174     -88751.06       21032.265     -109783.33    
     23000   23000          0.27556442     0.30161872     347.56397      261.62826      85.935709      94.06083       295.2649      -394.28007     -89914.524     -88716.057      21139.808     -109855.87    
     24000   24000          0.32077287     0.30211257     357.20344      256.03276      101.17068      95.285285      294.61527     -472.94516     -90183.519     -88745.939      21093.297     -109839.24    
     25000   25000          0.37154719     0.33290357     351.22424      244.60968      106.61456      95.525868      293.86671     -501.61122     -90266.515     -88741.8        21039.704     -109781.5     
     26000   26000          0.33653545     0.34081911     350.9025       257.04664      93.855859      95.050523      295.51675      630.60821     -86801.77      -88718.588      21157.84      -109876.43    
     27000   27000          0.31906205     0.36209471     339.02302      254.98835      84.034668      95.368624      292.54291     -504.67174     -90350.398     -88816.381      20944.925     -109761.31    
     28000   28000          0.37546982     0.33434427     350.3735       243.48302      106.89048      95.18267       295.12319      78.216205     -88389.085     -88626.834      21129.662     -109756.5     
     29000   29000          0.35196632     0.3589179      340.76031      246.28689      94.473426      96.339343      295.49551     -323.76638     -89699.075     -88714.943      21156.319     -109871.26    
     30000   30000          0.36398662     0.332193       360.10733      254.00069      106.10664      96.838406      296.82693      160.20933     -88027.758     -88514.735      21251.644     -109766.38    
     31000   31000          0.34520497     0.34534095     353.54254      256.65538      96.887162      96.925328      295.92529     -167.593       -89207.804     -88698.382      21187.09      -109885.47    
     32000   32000          0.33593685     0.34979667     352.13824      259.26167      92.876574      96.708403      293.68519      375.35095     -87641.856     -88782.785      21026.707     -109809.49    
     33000   33000          0.34759816     0.35986146     348.25735      255.10894      93.148409      96.434694      296.01298      486.54506     -87174.468     -88653.387      21193.368     -109846.75    
     34000   34000          0.3422462      0.36361356     337.04828      246.70428      90.344001      95.984422      293.60041     -402.50859     -90138.246     -88914.767      21020.637     -109935.4     
     35000   35000          0.34899276     0.28767815     356.90655      240.11401      116.79253      96.273231      293.61954      354.33823     -87696.832     -88773.89       21022.007     -109795.9     
     36000   36000          0.34658464     0.38209624     340.4592       253.02662      87.432578      96.391058      293.54877     -412.04139     -90089.381     -88836.926      21016.94      -109853.87    
     37000   37000          0.34577639     0.34059548     352.35775      254.29271      98.065044      96.595694      294.11206      67.253906     -88534.971     -88739.399      21057.27      -109796.67    
     38000   38000          0.33812485     0.28341165     356.07361      240.65175      115.42186      96.745035      293.59688     -253.0159      -89585.44      -88816.365      21020.385     -109836.75    
     39000   39000          0.33429462     0.34054455     349.23321      254.29511      94.93809       96.713042      295.13263      773.20569     -86409.84      -88760.102      21130.338     -109890.44    
     40000   40000          0.33899421     0.32364863     348.35877      247.14824      101.21053      96.628937      293.42046     -544.63916     -90437.038     -88781.534      21007.754     -109789.29    
     41000   41000          0.32291088     0.43528772     329.96476      258.2641       71.700665      96.653352      293.94639      520.12676     -87369.77      -88950.765      21045.408     -109996.17    
     42000   42000          0.3277078      0.39338618     330.84602      250.38661      80.459414      96.584891      292.30942     -447.70652     -90251.68      -88890.816      20928.208     -109819.02    
     43000   43000          0.34595228     0.29663372     359.62065      246.88358      112.73707      96.665401      295.00325      375.79082     -87462.597     -88604.864      21121.075     -109725.94    
     44000   44000          0.33931568     0.37259453     338.49925      250.3837       88.115544      96.757598      293.22587      524.94126     -87114.984     -88710.613      20993.822     -109704.44    
     45000   45000          0.33113299     0.32170758     346.81229      247.25777      99.554515      96.720784      294.65828     -373.83629     -89813.426     -88677.101      21096.377     -109773.48    
     46000   46000          0.33024067     0.3157489      348.18554      247.15177      101.03377      96.600165      295.58206     -300.43107     -89568.927     -88655.727      21162.516     -109818.24    
     47000   47000          0.3334553      0.31160045     356.69975      253.55354      103.14621      96.385946      296.04573     -343.11014     -89572.362     -88529.433      21195.713     -109725.15    
     48000   48000          0.3416699      0.34626357     352.84481      257.69166      95.153155      96.432467      296.95302     -238.42433     -89256.357     -88531.634      21260.671     -109792.31    
     49000   49000          0.34411325     0.31565429     348.5103       243.26221      105.24809      96.543827      294.48974     -469.60537     -90036.757     -88609.328      21084.31      -109693.64    
     50000   50000          0.33965929     0.30072216     356.44299      247.30175      109.14124      96.629742      294.74473     -622.36665     -90378.56      -88486.793      21102.566     -109589.36    
     51000   51000          0.3376787      0.32289089     352.70969      251.64921      101.06047      96.634775      295.21421      550.79018     -86857.341     -88531.541      21136.18      -109667.72    
     52000   52000          0.33589067     0.33764023     349.23447      253.09916      96.135308      96.63605       294.49194     -334.11374     -89734.188     -88718.604      21084.468     -109803.07    
     53000   53000          0.33576434     0.35529125     347.31497      255.94728      91.367687      96.68132       296.04588     -410.11285     -89830.903     -88584.311      21195.724     -109780.03    
     54000   54000          0.33708059     0.29544291     352.979        242.62047      110.35853      96.726557      294.71117     -158.04282     -89102.973     -88622.581      21100.164     -109722.74    
     55000   55000          0.3377213      0.32831649     348.66236      249.05543      99.606929      96.833091      294.20558      62.090867     -88405.661     -88594.394      21063.965     -109658.36    
     56000   56000          0.33880618     0.38238727     338.35746      252.54016      85.817303      96.856097      295.8593       614.15489     -86750.375     -88617.181      21182.365     -109799.55    
     57000   57000          0.33955841     0.38123014     341.28974      255.01987      86.26987       96.857192      295.27783     -647.87767     -90541.205     -88571.894      21140.734     -109712.63    
     58000   58000          0.34457887     0.35256395     339.06931      244.40431      94.665         96.858712      293.71585      561.58233     -87021.34      -88728.345      21028.903     -109757.25    
     59000   59000          0.33702949     0.36441624     336.46966      246.98435      89.485312      96.756817      294.01994      105.294       -88493.99      -88814.045      21050.674     -109864.72    
     60000   60000          0.34267492     0.35994408     348.00297      255.95874      92.044233      96.682816      295.45955     -131.00946     -88954.936     -88556.715      21153.745     -109710.46    
     61000   61000          0.34216637     0.3301268      347.39602      247.10031      100.2957       96.766667      294.51452     -449.7224      -89994.473     -88627.482      21086.084     -109713.57    
     62000   62000          0.34030583     0.36773582     343.60642      254.06168      89.544734      96.762393      294.93492      903.89111     -85874.26      -88621.758      21116.183     -109737.94    
     63000   63000          0.34382692     0.35646065     352.44291      259.17452      93.268387      96.695483      293.71341      1035.1743     -85436.249     -88582.8        21028.728     -109611.53    
     64000   64000          0.34585869     0.36787973     346.50455      255.56311      90.941444      96.73174       294.60862      40.16537      -88493.263     -88615.351      21092.822     -109708.17    
     65000   65000          0.34352369     0.41316755     343.25845      262.90966      80.348784      96.638199      294.76303     -480.53316     -90076.426     -88615.781      21103.877     -109719.66    
     66000   66000          0.3504533      0.28789026     360.78213      243.20951      117.57262      96.583516      295.34062     -364.65524     -89610.464     -88502.046      21145.229     -109647.27    
     67000   67000          0.3458857      0.31636151     352.08387      246.39711      105.68676      96.665523      295.28141      669.20689     -86742.494     -88776.638      21140.99      -109917.63    
     68000   68000          0.34651554     0.30793394     350.66334      241.90184      108.7615       96.651823      295.92106      709.11691     -86560.833     -88716.289      21186.787     -109903.08    
     69000   69000          0.35001357     0.3299386      354.8861       252.42891      102.45718      96.580771      293.61727     -1306.7703     -92621.397     -88649.294      21021.845     -109671.14    
     70000   70000          0.3549211      0.281683       364.15615      242.34953      121.80661      96.671772      294.51177      197.31698     -88102.599     -88702.371      21085.888     -109788.26    
     71000   71000          0.35368662     0.31052727     364.57516      254.53389      110.04127      96.613257      295.1676       311.26225     -87848.11      -88794.234      21132.842     -109927.08    
     72000   72000          0.35325848     0.3917937      335.27085      248.16142      87.109436      96.611773      293.70188      209.79506     -88223.182     -88860.882      21027.902     -109888.78    
     73000   73000          0.35275564     0.31393685     359.49764      250.91308      108.58456      96.635433      295.68063     -388.91879     -89841.55      -88659.379      21169.573     -109828.95    
     74000   74000          0.34917753     0.35085569     342.15273      246.02817      96.124565      96.586542      294.35253      485.18264     -87166.165     -88640.942      21074.486     -109715.43    
     75000   75000          0.34821795     0.36688088     336.76447      245.10231      91.662162      96.574847      292.43814     -34.91012      -88788.954     -88682.84       20937.424     -109620.26    
     76000   76000          0.35424446     0.33708548     349.42988      247.93014      101.49975      96.583278      295.43526     -661.79654     -90696.65      -88685.03       21152.006     -109837.04    
     77000   77000          0.3523159      0.3581432      348.21395      253.1835       95.030446      96.60225       294.50653      141.96404     -88229.668     -88661.187      21085.512     -109746.7     
     78000   78000          0.35405896     0.30970103     355.21321      244.86147      110.35174      96.526431      297.04023     -907.94703     -91408.403     -88648.577      21266.915     -109915.49    
     79000   79000          0.35258635     0.40202442     350.1166       265.40011      84.716499      96.595063      295.23623     -79.939126     -88779.426     -88536.44       21137.756     -109674.2     
     80000   80000          0.34881577     0.34902477     352.14718      255.61072      96.536456      96.594298      295.42279      295.50498     -87659.669     -88557.896      21151.112     -109709.01    
     81000   81000          0.3539745      0.31157588     358.88868      249.1713       109.71738      96.575568      295.68035      555.27661     -86963.089     -88650.927      21169.553     -109820.48    
     82000   82000          0.35497548     0.37994627     345.34065      255.14089      90.19976       96.544872      293.75726     -930.5214      -91416.235     -88587.791      21031.867     -109619.66    
     83000   83000          0.34903794     0.36991251     342.73901      251.60451      91.134501      96.584893      295.40216      311.03804     -87641.752     -88587.194      21149.636     -109736.83    
     84000   84000          0.3484857      0.3675686      347.7424       256.23248      91.509927      96.520964      295.86936      243.83864     -87822.696     -88563.876      21183.086     -109746.96    
     85000   85000          0.34876336     0.36841552     348.66842      257.30507      91.36335       96.511502      295.27014      512.78479     -87099.265     -88657.943      21140.183     -109798.13    
     86000   86000          0.349995       0.37778825     343.99991      254.59371      89.406197      96.505983      296.8896      -499.87118     -90148.101     -88628.676      21256.13      -109884.81    
     87000   87000          0.34892751     0.40592215     341.40007      258.49122      82.908847      96.451373      295.25913     -1004.9843     -91737.52      -88682.736      21139.396     -109822.13    
     88000   88000          0.3516598      0.32909259     352.80671      249.8053       103.00141      96.391453      296.74843     -49.72719      -88853.611     -88702.458      21246.024     -109948.48    
     89000   89000          0.3478216      0.3727881      359.1189       269.13551      89.98339       96.442365      295.316       -104.00581     -89084.666     -88768.527      21143.467     -109911.99    
     90000   90000          0.35049815     0.32419417     349.72192      245.46072      104.2612       96.436671      293.86329      424.13372     -87438.441     -88727.652      21039.459     -109767.11    
     91000   91000          0.35113831     0.39565826     340.00652      254.41397      85.592553      96.444619      296.03099      243.79365     -87820.352     -88561.395      21194.658     -109756.05    
     92000   92000          0.35266368     0.32047945     360.47953      254.37721      106.10231      96.419371      294.3371       120.0844      -88131.074     -88496.087      21073.381     -109569.47    
     93000   93000          0.35156013     0.41968119     336.65456      255.82114      80.833414      96.496335      294.5301      -765.04059     -90841.713     -88516.269      21087.2       -109603.47    
     94000   94000          0.34942097     0.39244883     344.82017      258.86089      85.959285      96.544352      296.28911     -897.38499     -91190.482     -88462.76       21213.138     -109675.9     
     95000   95000          0.34919631     0.39316398     345.2502       259.57053      85.67967       96.467686      296.62283      211.63807     -88008.512     -88651.814      21237.031     -109888.85    
     96000   96000          0.35220456     0.35110054     351.33914      254.54642      96.79272       96.489311      293.27578     -193.96178     -89026.706     -88437.133      20997.395     -109434.53    
     97000   97000          0.35028193     0.36930878     341.72453      250.18575      91.538788      96.511055      294.06057      706.89988     -86434.915     -88583.632      21053.583     -109637.22    
     98000   98000          0.35147937     0.33595565     347.83529      246.82785      101.00744      96.546263      296.26952      117.20756     -88204.444     -88560.712      21211.735     -109772.45    
     99000   99000          0.34920627     0.38202984     349.86054      261.60984      88.250702      96.545807      295.0151      -131.36321     -88929.109     -88529.813      21121.924     -109651.74    
    100000   100000         0.35056673     0.34536912     354.43621      256.48119      97.955016      96.502706      297.57195      393.08873     -87414.209     -88609.055      21304.984     -109914.04    
    101000   101000         0.35259928     0.29232956     364.75349      248.29442      116.45907      96.552748      297.05294     -277.072       -89383.181     -88540.983      21267.825     -109808.81    
    102000   102000         0.3497036      0.34988162     358.41799      261.8946       96.523398      96.572533      295.57658      331.52422     -87514.236     -88521.948      21162.124     -109684.07    
    103000   103000         0.3499009      0.33660643     352.98999      252.63175      100.35823      96.545124      294.47013     -416.08139     -89953.919     -88689.184      21082.906     -109772.09    
    104000   104000         0.35069374     0.33632227     348.3632       247.66794      100.69525      96.568753      293.35298      48.432182     -88537.329     -88684.545      21002.922     -109687.47    
    105000   105000         0.35075177     0.28176496     363.35311      243.17989      120.17322      96.537225      295.84635      56.481982     -88470.665     -88642.349      21181.438     -109823.79    
    106000   106000         0.35018908     0.29072127     354.66032      238.36015      116.30017      96.550505      293.89831      43.579973     -88554.645     -88687.113      21041.966     -109729.08    
    107000   107000         0.35132976     0.30248432     358.74919      246.54228      112.20691      96.606762      294.99024     -158.52908     -89124.641     -88642.771      21120.144     -109762.91    
    108000   108000         0.35104597     0.28757544     363.09292      245.06618      118.02674      96.687028      295.3536      -41.933956     -88782.909     -88655.445      21146.159     -109801.6     
    109000   109000         0.3476919      0.31370697     358.084        250.88986      107.19414      96.716515      296.6581      -211.52328     -89139.647     -88496.693      21239.556     -109736.25    
    110000   110000         0.34851583     0.33068933     352.46359      250.52764      101.93595      96.721951      295.44252     -290.96799     -89350.139     -88465.702      21152.525     -109618.23    
    111000   111000         0.34668142     0.35694355     350.05975      256.13185      93.927899      96.708263      295.9767      -76.902736     -88778.767     -88545.01       21190.77      -109735.78    
    112000   112000         0.35046807     0.36155465     354.24097      260.49672      93.744249      96.709719      296.0673      -296.22239     -89322.549     -88422.141      21197.257     -109619.4     
    113000   113000         0.35246999     0.31179633     351.88059      242.52802      109.35257      96.733715      296.64605     -644.65566     -90442.595     -88483.078      21238.693     -109721.77    
    114000   114000         0.35093797     0.35127421     348.44515      251.78475      96.660397      96.753009      294.76011     -186.38265     -89100.285     -88533.75       21103.667     -109637.42    
    115000   115000         0.35019906     0.34257197     350.77791      251.88846      98.889445      96.735702      296.94119     -135.87714     -88949.291     -88536.274      21259.824     -109796.1     
    116000   116000         0.35303127     0.44273124     337.82375      260.67724      77.146519      96.748296      295.7034      -269.23294     -89421.058     -88602.689      21171.204     -109773.89    
    117000   117000         0.35392132     0.33127848     353.98107      250.59384      103.38723      96.772819      295.36396      494.78653     -87019.22      -88523.19       21146.901     -109670.09    
    118000   118000         0.35352973     0.31633152     356.51595      248.39651      108.11944      96.74317       294.48055     -113.38246     -88816.215     -88471.574      21083.652     -109555.23    
    119000   119000         0.35252856     0.39116339     335.20327      248.0154       87.187868      96.74309       296.06885     -706.50634     -90721.371     -88573.85       21197.368     -109771.22    
    120000   120000         0.35141043     0.31004207     364.64656      255.00339      109.64317      96.735874      296.77752      58.085487     -88177.759     -88354.317      21248.106     -109602.42    
    121000   121000         0.35048772     0.38652212     342.06024      254.32824      87.732         96.751917      297.2685      -242.1758      -89258.854     -88522.728      21283.258     -109805.99    
    122000   122000         0.34984434     0.31077938     362.91926      254.03677      108.88249      96.724254      297.44194     -39.516764     -88722.08      -88601.963      21295.676     -109897.64    
    123000   123000         0.35053391     0.33837508     353.07865      252.91466      100.16399      96.689641      295.4684      -169.51146     -89138.505     -88623.252      21154.378     -109777.63    
    124000   124000         0.3516732      0.30633137     355.32131      244.28797      111.03334      96.717622      296.36188     -513.1204      -90159.728     -88600.03       21218.348     -109818.38    
    125000   125000         0.35245785     0.32507154     357.24892      252.34948      104.89944      96.74865       296.20095     -581.52857     -90252.477     -88484.843      21206.826     -109691.67    
    126000   126000         0.34920154     0.35854823     352.15589      257.96037      94.195522      96.716749      294.60289      168.40038     -88145.808     -88657.684      21092.411     -109750.09    
    127000   127000         0.35295049     0.33849926     347.1367       246.36322      100.77348      96.647403      293.68302      156.98238     -88210.948     -88688.117      21026.552     -109714.67    
    128000   128000         0.35231054     0.3810293      341.98014      252.63766      89.342473      96.625269      296.37189     -604.52936     -90381.445     -88543.897      21219.064     -109762.96    
    129000   129000         0.35242629     0.31048521     354.02264      244.35249      109.67015      96.618666      296.23481      91.011947     -88314.315     -88590.958      21209.25      -109800.21    
    130000   130000         0.35490296     0.36737096     345.8281       252.49964      93.32846       96.607156      294.22423      294.26975     -87759.258     -88653.73       21065.3       -109719.03    
    131000   131000         0.35658468     0.38042709     340.68569      250.08612      90.599567      96.657349      293.23388      328.45048     -87715.756     -88714.125      20994.395     -109708.52    
    132000   132000         0.35451063     0.38236157     354.60259      264.96477      89.637827      96.679921      296.58003     -734.56869     -90844.731     -88611.911      21233.967     -109845.88    
    133000   133000         0.35455186     0.34261081     358.13922      258.08236      100.05686      96.687021      294.93008     -262.02383     -89349.657     -88553.201      21115.837     -109669.04    
    134000   134000         0.35341072     0.38553516     337.98045      249.34176      88.638691      96.6958        295.21254      276.25881     -87754.88      -88594.605      21136.06      -109730.67    
    135000   135000         0.35426964     0.3120962      360.53677      250.73175      109.80502      96.733467      295.2322       303.77416     -87606.144     -88529.506      21137.467     -109666.97    
    136000   136000         0.35226834     0.36029603     351.39133      256.84945      94.541875      96.696348      294.08526     -569.86159     -90489.444     -88757.273      21055.351     -109812.62    
    137000   137000         0.35306531     0.42194311     337.618        256.72313      80.894873      96.676261      293.20665     -110.54707     -89044.437     -88708.415      20992.446     -109700.86    
    138000   138000         0.35535609     0.34690871     341.77258      242.74571      99.026872      96.672845      293.62149      731.52355     -86480.372     -88703.936      21022.146     -109726.08    
    139000   139000         0.35340869     0.37244836     339.08319      247.37054      91.712643      96.653604      294.33009      606.3906      -86869.542     -88712.747      21072.879     -109785.63    
    140000   140000         0.35560526     0.31568405     361.21635      252.33597      108.88037      96.657166      296.41614     -265.89669     -89579.031     -88770.803      21222.233     -109993.04    
    141000   141000         0.35615233     0.3204168      358.51551      251.03179      107.48372      96.699043      294.61908      616.14948     -86788.496     -88661.365      21093.57      -109754.94    
    142000   142000         0.35456057     0.35857362     352.9142       257.29561      95.618593      96.700839      296.31824     -241.59714     -89301.581     -88567.214      21215.223     -109782.44    
    143000   143000         0.35380724     0.35426713     350.22347      253.61904      96.604437      96.730008      295.31318      64.02144      -88264.828     -88459.43       21143.265     -109602.69    
    144000   144000         0.35444167     0.34537146     349.77643      250.51743      99.258993      96.718942      295.76885      544.11287     -86845.131     -88499.035      21175.889     -109674.92    
    145000   145000         0.35352389     0.36156825     345.2907       250.70823      94.582471      96.734674      296.33997     -719.96207     -90825.243     -88636.822      21216.779     -109853.6     
    146000   146000         0.35495931     0.37702147     347.73705      256.64715      91.089897      96.751503      296.38544     -256.50063     -89328.168     -88548.5        21220.034     -109768.53    
    147000   147000         0.35373333     0.4127566      333.87795      250.96411      82.913835      96.74868       296.34042      463.21046     -87071.38      -88479.37       21216.811     -109696.18    
    148000   148000         0.35639036     0.37890549     345.80237      254.81529      90.987075      96.735228      298.50693      687.36503     -86254.168     -88343.506      21371.925     -109715.43    
    149000   149000         0.35548943     0.38197241     350.8844       260.865        90.0194        96.725596      295.53215      621.7961      -86541.091     -88431.124      21158.943     -109590.07    
    150000   150000         0.35636669     0.31897989     360.03514      251.96601      108.06913      96.731484      297.56167     -687.7494      -90632.544     -88542.038      21304.248     -109846.29    
    151000   151000         0.35931452     0.38630159     341.82159      251.84021      89.981373      96.739614      296.33524     -82.180331     -88612.997     -88363.199      21216.44      -109579.64    
    152000   152000         0.35727667     0.31078761     355.59568      244.38338      111.2123       96.741288      297.77178      472.41098     -86876.859     -88312.815      21319.291     -109632.11    
    153000   153000         0.35690178     0.36903366     347.08657      253.52672      93.559842      96.740149      297.80841      209.94075     -87860.635     -88498.778      21321.914     -109820.69    
    154000   154000         0.35714942     0.32176684     354.9663       247.57057      107.39573      96.7561        296.36574     -356.42735     -89553.595     -88470.186      21218.625     -109688.81    
    155000   155000         0.35615797     0.4558555      332.63023      257.02283      75.607395      96.771797      295.45921      582.37883     -86757.903     -88528.121      21153.721     -109681.84    
    156000   156000         0.35648506     0.33272636     354.1778       250.50813      103.66966      96.760381      296.64749      593.12023     -86917.414     -88720.283      21238.796     -109959.08    
    157000   157000         0.35583761     0.36677277     349.55019      255.67684      93.873349      96.758149      293.64978     -539.34762     -90335.811     -88696.392      21024.172     -109720.56    
    158000   158000         0.35541017     0.3423819      350.4466       249.98839      100.45821      96.775711      295.66454     -257.46632     -89331.242     -88548.639      21168.421     -109717.06    
    159000   159000         0.35631071     0.41718595     326.6153       243.9585       82.656795      96.778604      294.46397      213.0809      -87981.879     -88629.567      21082.465     -109712.03    
    160000   160000         0.35591619     0.44896745     330.77291      254.04478      76.728135      96.788054      296.16222      593.31698     -86633.349     -88436.816      21204.053     -109640.87    
    161000   161000         0.35569707     0.34304646     347.13719      246.81263      100.32456      96.756449      296.54106      484.59277     -86949.561     -88422.545      21231.176     -109653.72    
    162000   162000         0.35628523     0.39746472     337.9722       251.22022      86.751985      96.77879       296.5458      -32.624805     -88669.002     -88569.834      21231.516     -109801.35    
    163000   163000         0.35423171     0.35980603     345.307        250.00769      95.299316      96.79898       294.71035     -388.11093     -89838.695     -88658.98       21100.105     -109759.08    
    164000   164000         0.35559618     0.38263574     346.41444      256.4558       89.958644      96.799107      293.33917     -32.725721     -88709.955     -88610.481      21001.934     -109612.41    
    165000   165000         0.35447108     0.37388601     339.56216      247.80787      91.754291      96.779816      293.14543      522.71406     -87338.376     -88927.235      20988.063     -109915.3     
    166000   166000         0.35293064     0.46352579     336.12725      262.44691      73.680337      96.768977      295.45057      156.50543     -88366.457     -88842.176      21153.102     -109995.28    
    167000   167000         0.35444101     0.3718602      352.49425      260.27881      92.215448      96.747425      294.28985     -356.03137     -89729.13      -88646.925      21069.999     -109716.92    
    168000   168000         0.35422592     0.31892062     360.74568      253.28794      107.45774      96.747546      296.1966      -394.73086     -89922.271     -88722.433      21206.514     -109928.95    
    169000   169000         0.35412916     0.37750285     345.38669      254.6394       90.747294      96.736915      296.72697     -635.57981     -90638.563     -88706.633      21244.487     -109951.12    
    170000   170000         0.35459109     0.3009563      361.38166      247.41688      113.96478      96.726675      295.61613     -510.81387     -90227.692     -88675.005      21164.955     -109839.96    
    171000   171000         0.35502183     0.33453668     342.64683      239.98816      102.65867      96.735148      293.72223     -327.41961     -89673.738     -88678.503      21029.359     -109707.86    
    172000   172000         0.35536135     0.37666904     352.67225      261.41248      91.259768      96.731761      295.54066     -831.11722     -91096.787     -88570.495      21159.552     -109730.05    
    173000   173000         0.35548631     0.31713335     357.34877      248.90017      108.4486       96.748223      293.93903     -136.16852     -89173.553     -88759.65       21044.881     -109804.53    
    174000   174000         0.3548505      0.28566545     363.61397      243.40785      120.20613      96.769588      295.39067     -332.9826      -89662.8       -88650.655      21148.813     -109799.47    
    175000   175000         0.35423414     0.32833853     355.47145      251.08181      104.38964      96.758438      296.64331     -647.78893     -90528.016     -88558.975      21238.497     -109797.47    
    176000   176000         0.35273257     0.42761859     344.29295      264.49027      79.802683      96.744995      295.93556      364.59815     -87406.977     -88515.222      21187.825     -109703.05    
    177000   177000         0.35444357     0.3402352      345.54543      244.77179      100.77364      96.733988      297.57931      195.49334     -87979.993     -88574.222      21305.511     -109879.73    
    178000   178000         0.35539711     0.36238572     350.27416      255.41522      94.858933      96.724261      296.40165     -187.54639     -89162.911     -88592.839      21221.195     -109814.03    
    179000   179000         0.35510389     0.32667295     352.37509      247.22786      105.14723      96.72875       294.06642     -5.7342164     -88700.273     -88682.843      21054.002     -109736.85    
    180000   180000         0.35572688     0.33036095     353.29909      249.15046      104.14864      96.722078      296.2387       567.38473     -86898.718     -88623.36       21209.528     -109832.89    
    181000   181000         0.35448685     0.39179996     337.57543      250.08205      87.493384      96.702894      295.58485      555.08888     -86953.221     -88640.488      21162.716     -109803.2     
    182000   182000         0.35381472     0.39662299     344.32291      258.08017      86.242736      96.677299      295.92384     -637.58254     -90619.191     -88681.174      21186.986     -109868.16    
    183000   183000         0.35485509     0.38939067     339.85605      251.76518      88.090871      96.664143      295.58945     -352.40579     -89769.299     -88698.114      21163.045     -109861.16    
    184000   184000         0.35559017     0.29373309     360.2201       243.20617      117.01393      96.65864       295.70153     -114.20678     -88948.082     -88600.935      21171.069     -109772       
    185000   185000         0.35491646     0.34237157     353.68639      253.46383      100.22256      96.680093      294.42442      71.961119     -88493.441     -88712.176      21079.634     -109791.81    
    186000   186000         0.3554913      0.37969315     343.45473      252.94406      90.510666      96.672632      290.8907       0.78077817    -88769.969     -88772.342      20826.633     -109598.98    
    187000   187000         0.35432016     0.3695799      354.67319      261.98815      92.685047      96.676774      293.97844     -187.66202     -89365.63      -88795.206      21047.703     -109842.91    
    188000   188000         0.35448276     0.45476006     329.46072      254.11548      75.345242      96.659161      293.82331     -157.02176     -89191.323     -88714.035      21036.596     -109750.63    
    189000   189000         0.3544429      0.34218137     352.51869      252.39301      100.12569      96.661957      295.73053      668.82141     -86727.347     -88760.32       21173.145     -109933.46    
    190000   190000         0.3538975      0.39775126     333.00194      246.97803      86.023912      96.683698      294.66794      1032.5738     -85542.543     -88681.189      21097.068     -109778.26    
    191000   191000         0.35359578     0.28999004     370.49157      252.60005      117.89152      96.684882      296.04645      324.44768     -87526.554     -88512.756      21195.764     -109708.52    
    192000   192000         0.35403214     0.32452263     357.62102      252.12643      105.49459      96.701338      295.49068     -125.81137     -88852.547     -88470.127      21155.974     -109626.1     
    193000   193000         0.35309691     0.34726623     353.78998      255.46673      98.323245      96.699638      297.39159     -623.49787     -90387.226     -88492.021      21292.071     -109784.09    
    194000   194000         0.35372553     0.3424846      346.98284      247.11447      99.868368      96.694685      293.92083     -183.61458     -89145.194     -88587.073      21043.579     -109630.65    
    195000   195000         0.35237086     0.36627221     350.83648      257.80845      93.028022      96.698063      294.6663      -373.21808     -89777.264     -88642.817      21096.951     -109739.77    
    196000   196000         0.35426866     0.30784951     366.34417      255.06744      111.27673      96.696349      297.44945     -90.088612     -88746.652     -88472.816      21296.214     -109769.03    
    197000   197000         0.35429285     0.3829734      340.9883       251.5245       89.463802      96.706036      294.97284      154.84253     -88127.061     -88597.725      21118.898     -109716.62    
    198000   198000         0.35405123     0.43537681     329.1453       250.49508      78.650219      96.716177      295.88674      140.08051     -88145.148     -88570.941      21184.33      -109755.27    
    199000   199000         0.35415175     0.34156581     349.87338      249.61935      100.25403      96.691172      296.02124      372.20955     -87473.931     -88605.312      21193.96      -109799.27    
    200000   200000         0.35412206     0.35297901     346.65979      249.67519      96.984597      96.671545      295.73503     -408.0082      -89791.113     -88550.918      21173.468     -109724.39    
    201000   201000         0.35431674     0.29069508     372.88559      255.06095      117.82464      96.667865      295.38099      497.10561     -87015.94      -88526.959      21148.12      -109675.08    
    202000   202000         0.35580721     0.36446485     350.06549      255.66123      94.404259      96.701339      297.52213     -42.327148     -88572.029     -88443.37       21301.417     -109744.79    
    203000   203000         0.3566632      0.2656864      372.11024      242.2777       129.83254      96.715167      297.18935      438.08135     -86954.125     -88285.732      21277.591     -109563.32    
    204000   204000         0.35519754     0.35820695     356.62343      260.70449      95.918939      96.731612      296.31785     -444.26819     -89709.591     -88359.178      21215.196     -109574.37    
    205000   205000         0.35498593     0.34188095     350.19556      249.74902      100.44654      96.73837       297.56934      122.52986     -88188.892     -88561.338      21304.798     -109866.14    
    206000   206000         0.35371423     0.34872665     354.62559      256.49109      98.134501      96.750747      295.66106     -579.70401     -90337.083     -88574.995      21168.172     -109743.17    
    207000   207000         0.35410612     0.3378702      361.74863      260.32435      101.42428      96.773929      298.05958     -425.25849     -89719.752     -88427.121      21339.897     -109767.02    
    208000   208000         0.35365754     0.3402852      349.51734      248.94446      100.57288      96.770065      295.74455      121.5536      -88166.667     -88536.146      21174.15      -109710.3     
    209000   209000         0.35378874     0.29057047     367.34344      249.51289      117.83055      96.775489      294.05714     -189.58397     -89165.151     -88588.885      21053.338     -109642.22    
    210000   210000         0.35351298     0.44806258     334.67293      258.31637      76.356554      96.778666      294.23667     -52.643238     -88694.766     -88534.75       21066.191     -109600.94    
    211000   211000         0.35239507     0.34006745     347.41443      247.13203      100.2824       96.774276      293.42762      470.27068     -87181.118     -88610.568      21008.267     -109618.83    
    212000   212000         0.35460733     0.34396664     345.359        245.60132      99.757673      96.76425       293.82108     -244.88218     -89448.074     -88703.721      21036.436     -109740.16    
    213000   213000         0.35306497     0.2966956      352.68582      237.53031      115.15551      96.770104      295.24773     -40.656968     -88758.729     -88635.147      21138.579     -109773.73    
    214000   214000         0.35144965     0.44773344     347.85575      271.88424      75.971513      96.784807      295.87189      455.23292     -87162.694     -88546.436      21183.267     -109729.7     
    215000   215000         0.35223305     0.36528575     344.92865      251.61575      93.312898      96.770793      297.2004      -596.42376     -90572.361     -88759.451      21278.383     -110037.83    
    216000   216000         0.35221483     0.34551891     347.95366      249.2989       98.654763      96.779249      294.19201     -468.70461     -90002.934     -88578.243      21062.994     -109641.24    
    217000   217000         0.35226573     0.29487648     360.95826      245.35031      115.60795      96.773717      296.8625      -189.56236     -89094.723     -88518.523      21254.19      -109772.71    
    218000   218000         0.35225729     0.33900768     352.46214      251.8801       100.58203      96.798796      297.08833      32.742642     -88362.792     -88462.317      21270.359     -109732.68    
    219000   219000         0.35201874     0.36195777     349.10834      254.97225      94.136082      96.793956      295.61123     -93.907711     -88746.014     -88460.569      21164.604     -109625.17    
    220000   220000         0.35169622     0.38902647     343.93606      256.43728      87.498771      96.786192      294.94005      598.35782     -86742.237     -88561.025      21116.55      -109677.58    
    221000   221000         0.35163528     0.35775265     353.74628      258.61895      95.127327      96.78225       296.04933      254.79596     -87788.742     -88563.228      21195.971     -109759.2     
    222000   222000         0.35248029     0.39062159     338.81324      251.47243      87.340812      96.791814      296.35225      176.29624     -87870.045     -88405.921      21217.658     -109623.58    
    223000   223000         0.3523549      0.35577789     354.53522      258.69668      95.838541      96.769576      299.16735      409.12938     -87020.046     -88263.649      21419.209     -109682.86    
    224000   224000         0.35211874     0.38790773     335.46191      247.61786      87.844045      96.772425      297.27777     -222.57835     -88995.969     -88319.413      21283.922     -109603.34    
    225000   225000         0.35353832     0.30952545     357.91297      247.38686      110.52611      96.766441      301.5053      -554.48949     -89854.701     -88169.256      21586.597     -109755.85    
    226000   226000         0.35217789     0.31182909     353.2594       243.96415      109.29525      96.773358      298.39413     -368.8468      -89313.262     -88192.103      21363.849     -109555.95    
    227000   227000         0.35171117     0.36605668     342.5852       249.59624      92.98896       96.781769      298.44657      593.44677     -86371.834     -88175.695      21367.603     -109543.3     
    228000   228000         0.35156893     0.35933921     353.46225      258.78929      94.672966      96.765403      297.46173     -541.00165     -89761.027     -88116.58       21297.093     -109413.67    
    229000   229000         0.35137758     0.37786965     345.71945      255.73028      89.989172      96.773893      297.52303      393.31797     -87014.937     -88210.48       21301.482     -109511.96    
    230000   230000         0.35215369     0.33286382     347.29113      244.8966       102.39453      96.785678      298.03294     -479.08614     -89658.8       -88202.553      21337.989     -109540.54    
    231000   231000         0.35212386     0.36838409     334.54574      242.02542      92.520315      96.792679      297.73239      71.45794      -88032.963     -88250.169      21316.471     -109566.64    
    232000   232000         0.35244437     0.33954389     346.84812      246.40325      100.44488      96.768305      299.1684       214.85988     -87551.385     -88204.48       21419.283     -109623.76    
    233000   233000         0.35326819     0.30492918     353.46305      241.34023      112.12281      96.780629      298.27473      334.44214     -87261.355     -88277.937      21355.3       -109633.24    
    234000   234000         0.35340566     0.32155428     355.18162      248.78686      106.39476      96.805718      298.45772     -412.15039     -89472.932     -88220.146      21368.402     -109588.55    
    235000   235000         0.35388636     0.31982873     357.2493       250.12966      107.11964      96.810565      297.0786       612.93832     -86329.574     -88192.682      21269.662     -109462.34    
    236000   236000         0.35311288     0.42666837     330.73928      250.62828      80.111003      96.798596      297.06029     -895.266       -91038.829     -88317.549      21268.351     -109585.9     
    237000   237000         0.35386636     0.39552693     341.24402      254.6453       86.598718      96.793957      297.88583      113.4326      -87858.82      -88203.614      21327.457     -109531.07    
    238000   238000         0.35281788     0.44168995     347.26454      269.95473      77.309813      96.78355       298.19044     -406.37535     -89609.729     -88374.497      21349.265     -109723.76    
    239000   239000         0.35441146     0.36336885     350.45224      256.06632      94.385921      96.771431      298.30277     -1.3395797     -88315.505     -88311.433      21357.308     -109668.74    
    240000   240000         0.35501078     0.34522255     352.40735      252.86379      99.54356       96.79898       298.0397      -144.72847     -88784.356     -88344.434      21338.473     -109682.91    
    241000   241000         0.35460766     0.32616217     352.36617      247.10796      105.2582       96.814728      296.68987     -829.12141     -90973.392     -88453.166      21241.831     -109695       
    242000   242000         0.35485629     0.35980388     345.64851      250.1598       95.488713      96.820066      298.41682      48.32574      -88174.023     -88320.916      21365.474     -109686.39    
    243000   243000         0.35421084     0.32512292     361.31396      255.84476      105.4692       96.808028      298.83416     -63.283787     -88512.598     -88320.238      21395.353     -109715.59    
    244000   244000         0.353417       0.34314392     350.64778      250.95179      99.695985      96.798034      296.34346     -620.46329     -90385.773     -88499.791      21217.029     -109716.82    
    245000   245000         0.3549297      0.32453649     354.50945      248.63624      105.8732       96.807106      298.9921       251.86553     -87505.303     -88270.882      21406.661     -109677.54    
    246000   246000         0.35498454     0.36482683     347.96955      253.76639      94.20316       96.815034      296.96392      144.26593     -87767.403     -88205.918      21261.452     -109467.37    
    247000   247000         0.35492001     0.35900427     343.50049      247.80499      95.695498      96.796718      295.25802      360.67023     -87171.058     -88267.363      21139.316     -109406.68    
    248000   248000         0.35578563     0.33252081     359.42855      255.86791      103.56065      96.788815      300.22473     -351.25024     -89190.238     -88122.566      21494.913     -109617.48    
    249000   249000         0.35466736     0.41153279     335.49361      252.06864      83.424974      96.800878      300.92985     -408.8033      -89353.324     -88110.712      21545.397     -109656.11    
    250000   250000         0.35565954     0.36300477     342.44723      247.60386      94.843365      96.80211       295.80891      291.6345      -87221.655     -88108.117      21178.758     -109286.87    
    251000   251000         0.35624382     0.35097476     350.59283      252.32494      98.267893      96.814452      298.21277      1108.9877     -84592.952     -87963.868      21350.864     -109314.73    
    252000   252000         0.35629931     0.28393794     360.7498       239.24729      121.50251      96.826379      299.89098     -582.58895     -89893.481     -88122.624      21471.017     -109593.64    
    253000   253000         0.35623017     0.33249883     350.42074      246.66177      103.75897      96.846755      299.08607      886.86771     -85410.943     -88106.696      21413.389     -109520.09    
    254000   254000         0.35604649     0.30019736     358.40681      243.52478      114.88204      96.861747      300.22882     -124.37675     -88313.046     -87934.986      21495.206     -109430.19    
    255000   255000         0.35561691     0.35120308     344.46807      246.3838       98.084266      96.866871      297.65153     -672.38228     -90320.348     -88276.552      21310.682     -109587.23    
    256000   256000         0.35575622     0.34176286     350.91701      250.10586      100.81114      96.845827      296.9254       79.384821     -87987.414     -88228.715      21258.694     -109487.41    
    257000   257000         0.35523608     0.39656503     347.71494      260.95543      86.759502      96.853294      298.60142      528.6648      -86682.278     -88289.225      21378.69      -109667.92    
    258000   258000         0.35438806     0.38019504     348.60839      258.34137      90.267017      96.840373      297.84591      649.84892     -86182.064     -88157.366      21324.598     -109481.96    
    259000   259000         0.354912       0.34299015     350.45733      250.26391      100.19342      96.827823      299.29833     -107.88091     -88501.207     -88173.288      21428.586     -109601.87    
    260000   260000         0.35497334     0.39562689     346.88482      260.01939      86.86543       96.813747      295.50085     -225.70282     -88903.637     -88217.583      21156.702     -109374.28    
    261000   261000         0.35577392     0.31777708     353.02471      244.63861      108.38611      96.810412      299.31328     -94.731883     -88478.54      -88190.589      21429.656     -109620.25    
    262000   262000         0.35554806     0.29426402     364.64358      247.66769      116.97589      96.813343      298.44195     -452.94842     -89736.557     -88359.76       21367.273     -109727.03    
    263000   263000         0.35524954     0.33500393     347.17273      244.51171      102.66102      96.81039       298.50305      614.2706      -86443.224     -88310.382      21371.647     -109682.03    
    264000   264000         0.35500047     0.32951104     348.43629      244.1443       104.29198      96.803704      296.89041      142.91252     -88118.051     -88552.453      21256.188     -109808.64    
    265000   265000         0.35516423     0.38521041     334.10411      244.83603      89.268071      96.819972      293.32992      90.21343      -88394.215     -88668.431      21001.271     -109669.7     
    266000   266000         0.35543493     0.33672684     349.2792       247.05492      102.22428      96.843771      296.62232     -349.79813     -89528.107     -88464.849      21236.994     -109701.84    
    267000   267000         0.35411306     0.3701734      353.97391      261.33064      92.643266      96.844979      297.71839     -224.15659     -89086.778     -88405.424      21315.469     -109720.89    
    268000   268000         0.35413508     0.37398874     350.54435      258.83714      91.707202      96.848527      295.95458     -1407.6144     -92708.557     -88429.925      21189.186     -109619.11    
    269000   269000         0.35416342     0.40535113     345.95543      261.3384       84.617029      96.84684       295.22653      65.381054     -88436.139     -88634.874      21137.061     -109771.94    
    270000   270000         0.35321827     0.43707682     332.91404      254.63482      78.279222      96.863712      295.6523      -670.31699     -90672.581     -88635.063      21167.545     -109802.61    
    271000   271000         0.3528413      0.37404888     343.77706      252.41556      91.361504      96.852802      294.65409      561.86129     -86951.371     -88659.223      21096.076     -109755.3     
    272000   272000         0.35387645     0.29492703     350.37146      234.18327      116.18819      96.83334       295.35363      148.10417     -88317.269     -88767.451      21146.161     -109913.61    
    273000   273000         0.3545551      0.31901321     351.71214      244.09875      107.61339      96.825832      295.85484      32.830025     -88555.403     -88655.194      21182.046     -109837.24    
    274000   274000         0.35493448     0.36119645     347.51406      252.39033      95.123732      96.801962      295.58321     -274.58045     -89352.473     -88517.849      21162.598     -109680.45    
    275000   275000         0.35553301     0.3218417      350.51104      243.57934      106.9317       96.798554      295.40961      151.67558     -88048.725     -88509.763      21150.169     -109659.93    
    276000   276000         0.35423905     0.35993299     344.722        249.45794      95.264065      96.795313      295.46724     -113.00461     -88898.53      -88555.038      21154.295     -109709.33    
    277000   277000         0.35540937     0.3343049      357.84598      254.95509      102.89089      96.781151      295.09538      503.57967     -86988.432     -88519.129      21127.671     -109646.8     
    278000   278000         0.35519041     0.36339085     346.75857      252.16455      94.594015      96.777951      299.68681      12.223684     -88393.493     -88430.649      21456.4       -109887.05    
    279000   279000         0.35448976     0.31518567     359.66072      250.82501      108.83571      96.768538      296.33916      438.99157     -87136.148     -88470.521      21216.721     -109687.24    
    280000   280000         0.35495998     0.34869368     350.78201      252.26608      98.515929      96.776773      297.29305     -210.59781     -89158.134     -88517.993      21285.016     -109803.01    
    281000   281000         0.3556974      0.38306921     341.94982      252.10181      89.848009      96.76204       295.40855     -114.58613     -88722.691     -88374.391      21150.093     -109524.48    
    282000   282000         0.35549199     0.41474613     343.72869      260.78318      82.945511      96.771042      298.63195     -283.58289     -89298.87      -88436.882      21380.876     -109817.76    
    283000   283000         0.3564349      0.30212308     356.67329      242.50711      114.16618      96.770095      295.98589      141.61818     -87924.705     -88355.172      21191.429     -109546.6     
    284000   284000         0.35599477     0.32495298     359.24552      253.20964      106.03588      96.789835      295.47308     -63.753331     -88603.898     -88410.111      21154.713     -109564.82    
    285000   285000         0.35553493     0.38795118     337.07167      248.36358      88.708089      96.796139      294.8445      -179.04042     -89145.167     -88600.95       21109.709     -109710.66    
    286000   286000         0.35611354     0.35089196     351.39512      253.15397      98.241149      96.80067       299.4099      -415.15489     -89725.304     -88463.385      21436.574     -109899.96    
    287000   287000         0.35545502     0.27783808     365.07658      241.22306      123.85352      96.808941      296.37733     -188.32987     -89062.949     -88490.495      21219.454     -109709.95    
    288000   288000         0.35585488     0.35029339     352.99799      254.64418      98.35381       96.816685      297.31154     -274.74261     -89331.929     -88496.812      21286.339     -109783.15    
    289000   289000         0.35622435     0.34811241     354.30904      255.2386       99.070436      96.814403      296.22338     -229.49595     -89244.766     -88547.182      21208.432     -109755.61    
    290000   290000         0.35544736     0.32440332     344.39806      238.30884      106.08922      96.823607      294.30796     -625.7975      -90577.92      -88675.724      21071.295     -109747.02    
    291000   291000         0.35500434     0.37423688     343.44711      251.60686      91.840252      96.815742      293.68597      305.12006     -87774.371     -88701.824      21026.763     -109728.59    
    292000   292000         0.35596911     0.35833713     346.84451      250.6513       96.193205      96.833112      296.33086     -289.51842     -89377.031     -88497.001      21216.127     -109713.13    
    293000   293000         0.35586933     0.32532854     356.29701      250.37326      105.92375      96.833346      297.89086      168.89113     -87826.865     -88340.232      21327.817     -109668.05    
    294000   294000         0.35502837     0.42910781     338.84452      258.7272       80.117321      96.834425      296.52738      495.80902     -86931.622     -88438.7        21230.197     -109668.9     
    295000   295000         0.35522468     0.41393584     331.39274      248.30555      83.087187      96.819751      295.44792     -37.486732     -88606.974     -88493.028      21152.912     -109645.94    
    296000   296000         0.35594656     0.35524092     353.75174      256.75266      96.999087      96.806794      298.65888     -346.40047     -89335.065     -88282.135      21382.804     -109664.94    
    297000   297000         0.35587594     0.34133283     352.79506      251.87229      100.92277      96.798491      297.63067     -1053.6834     -91660.433     -88457.621      21309.188     -109766.81    
    298000   298000         0.35579122     0.37673821     345.14783      253.72673      91.421097      96.80346       294.6539      -257.21192     -89365.58      -88583.75       21096.063     -109679.81    
    299000   299000         0.35574667     0.47495259     317.88961      245.38721      72.5024        96.796979      294.65203     -422.01941     -89952.398     -88669.614      21095.929     -109765.54    
    300000   300000         0.35514614     0.37046536     347.22692      254.43472      92.792199      96.794786      297.10508     -455.46502     -89994.435     -88609.988      21271.558     -109881.55    
    301000   301000         0.35669786     0.35164181     352.46534      254.28989      98.175456      96.783858      296.69057      1414.9884     -84189.7       -88490.747      21241.881     -109732.63    
    302000   302000         0.35694264     0.34746184     344.58359      245.14294      99.440646      96.799389      293.2846       394.26095     -87305.578     -88503.987      20998.027     -109502.01    
    303000   303000         0.3563442      0.39327823     337.47932      249.77383      87.70549       96.795908      295.4254      -398.41944     -89716.395     -88505.346      21151.299     -109656.65    
    304000   304000         0.355533       0.376778       349.46711      258.1261       91.341018      96.799133      296.3487      -520.44954     -90042.125     -88460.149      21217.404     -109677.55    
    305000   305000         0.35635773     0.31809257     356.33004      247.88042      108.44962      96.804464      293.98275     -587.24554     -90361.458     -88576.446      21048.011     -109624.46    
    306000   306000         0.35553108     0.42220889     345.70389      264.18733      81.516557      96.804518      296.35551     -19.574562     -88644.953     -88585.454      21217.892     -109803.35    
    307000   307000         0.35507397     0.36107462     347.61041      252.4169       95.193503      96.802248      296.41472     -291.53013     -89406.714     -88520.569      21222.131     -109742.7     
    308000   308000         0.35504684     0.36693111     345.8296       252.15862      93.670971      96.806363      296.05678      81.163206     -88241.912     -88488.618      21196.504     -109685.12    
    309000   309000         0.35547497     0.40553572     339.30356      254.44896      84.854603      96.804487      295.75592      292.34392     -87572.797     -88461.415      21174.964     -109636.38    
    310000   310000         0.35485328     0.33918537     356.99601      255.70568      101.29033      96.818038      296.26162      109.77527     -88139.251     -88472.927      21211.169     -109684.1     
    311000   311000         0.35544883     0.3057687      355.99052      243.44407      112.54645      96.81613       297.16109     -124.4112      -88798.088     -88419.924      21275.568     -109695.49    
    312000   312000         0.35544928     0.30989816     364.2185       253.14251      111.07598      96.841502      299.018       -278.49314     -89149.285     -88302.768      21408.516     -109711.28    
    313000   313000         0.35469885     0.31699517     350.16587      241.80406      108.36181      96.843199      299.07726      285.1122      -87460.011     -88326.648      21412.759     -109739.41    
    314000   314000         0.35441785     0.40106079     336.97419      251.38768      85.586509      96.850068      299.19956     -114.18177     -88769.853     -88422.782      21421.514     -109844.3     
    315000   315000         0.35441744     0.35008721     341.10695      243.05333      98.05362       96.855612      296.46967     -297.73153     -89430.498     -88525.503      21226.065     -109751.57    
    316000   316000         0.35417007     0.33759862     357.69833      256.10036      101.59797      96.844248      298.2627      -321.27744     -89420.495     -88443.929      21354.439     -109798.37    
    317000   317000         0.35499838     0.3086191      363.85917      252.46411      111.39505      96.841685      296.30882     -374.99916     -89424.703     -88284.842      21214.549     -109499.39    
    318000   318000         0.35525956     0.37939178     345.15715      254.49177      90.665371      96.824126      296.57822      323.76967     -87435.316     -88419.457      21233.837     -109653.29    
    319000   319000         0.35470116     0.32258892     344.35031      237.87876      106.47154      96.832332      297.15084     -72.610775     -88669.531     -88448.821      21274.834     -109723.65    
    320000   320000         0.35439937     0.39548826     341.9725       255.21348      86.759021      96.81782       300.1607      -204.95194     -89117.261     -88494.282      21490.328     -109984.61    
    321000   321000         0.35489953     0.34711128     349.20821      250.22569      98.98252       96.810356      298.47604     -220.18587     -89088.707     -88419.422      21369.713     -109789.14    
    322000   322000         0.35461932     0.3248325      355.35264      249.66878      105.68386      96.806777      299.82753     -537.11978     -90042.312     -88409.665      21466.475     -109876.14    
    323000   323000         0.35417409     0.34094524     349.31674      248.74792      100.56882      96.812445      297.25998     -1058.9057     -91711.256     -88492.57       21282.648     -109775.22    
    324000   324000         0.35446326     0.3339672      351.89461      249.14593      102.74868      96.807458      294.87867     -119.71271     -88978.728     -88614.845      21112.156     -109727       
    325000   325000         0.35539893     0.40476274     339.39707      254.4149       84.982163      96.78592       298.30413     -562.74754     -90323.475     -88612.928      21357.405     -109970.33    
    326000   326000         0.35607537     0.35019168     349.4667       251.04967      98.417038      96.790823      296.8517      -384.00244     -89656.512     -88489.285      21253.417     -109742.7     
    327000   327000         0.35519307     0.40931724     348.36729      264.37469      83.9926        96.791358      295.54518      384.69503     -87356.403     -88525.735      21159.875     -109685.61    
    328000   328000         0.35568153     0.35443083     344.43026      247.28897      97.141292      96.799711      295.10679     -283.81721     -89377.919     -88515.218      21128.489     -109643.71    
    329000   329000         0.35544087     0.31514843     358.71416      249.52694      109.18722      96.809859      296.25456     -678.73422     -90460.434     -88397.33       21210.664     -109607.99    
    330000   330000         0.35605268     0.29811265     359.64313      244.00587      115.63726      96.819744      295.15885      187.09265     -87869.318     -88438.012      21132.216     -109570.23    
    331000   331000         0.35598999     0.35203542     350.26056      252.32579      97.934764      96.846841      294.18801     -182.46602     -88909.683     -88355.053      21062.708     -109417.76    
    332000   332000         0.35612892     0.34502119     346.04284      246.06463      99.978212      96.859873      294.56895     -278.99369     -89398.455     -88550.416      21089.981     -109640.4     
    333000   333000         0.35598744     0.34112361     361.51336      260.42996      101.0834       96.862782      298.98822      42.995341     -88119.158     -88249.848      21406.383     -109656.23    
    334000   334000         0.35640673     0.30274346     353.00738      238.96815      114.03923      96.868633      297.93076     -328.25312     -89303.599     -88305.829      21330.674     -109636.5     
    335000   335000         0.35569251     0.33710505     350.85958      248.63011      102.22947      96.887254      296.27917      44.8926       -88145.943     -88282.4        21212.426     -109494.83    
    336000   336000         0.35584658     0.34381103     356.93941      256.65711      100.2823       96.890525      298.06354      340.41114     -87347.022     -88381.747      21340.18      -109721.93    
    337000   337000         0.35601786     0.37147047     347.39024      254.53487      92.855369      96.885665      299.56534     -469.14952     -89628.403     -88202.361      21447.703     -109650.06    
    338000   338000         0.35576326     0.34779866     349.06183      249.95694      99.104889      96.886194      298.46089      32.408473     -88217.192     -88315.702      21368.629     -109684.33    
    339000   339000         0.35621466     0.33133216     357.39574      253.22077      104.17497      96.898084      296.34777     -328.17633     -89187.413     -88189.878      21217.338     -109407.22    
    340000   340000         0.35636662     0.32186395     355.84968      248.55234      107.29733      96.909028      297.56602     -930.97798     -91047.733     -88217.901      21304.559     -109522.46    
    341000   341000         0.35668541     0.32398092     358.9674       252.27312      106.69429      96.911487      299.28814     -602.1089      -90247.395     -88417.205      21427.857     -109845.06    
    342000   342000         0.3567399      0.33012373     357.64996      252.91529      104.73467      96.920477      298.90718      386.25529     -87004.494     -88178.568      21400.582     -109579.15    
    343000   343000         0.35679258     0.3220301      356.89904      249.50017      107.39888      96.934949      296.35955     -517.98322     -90031.686     -88457.207      21218.181     -109675.39    
    344000   344000         0.35667884     0.40213365     341.25475      255.27719      85.977559      96.934457      297.0963      -120.586       -88678.459     -88311.922      21270.93      -109582.85    
    345000   345000         0.35682936     0.361271       346.73296      250.98291      95.750046      96.941897      295.90064     -270.09361     -89178.979     -88357.994      21185.325     -109543.32    
[...]
    932000   932000         0.35996836     0.36593444     343.932        248.76703      95.164967      96.74222       300.29964      317.98158     -86852.64      -87819.187      21500.276     -109319.46    
    933000   933000         0.36014683     0.29754883     368.54328      251.45017      117.09311      96.740872      301.14375     -1147.9231     -91100.726     -87611.46       21560.711     -109172.17    
    934000   934000         0.3601929      0.38129336     346.39153      255.00322      91.388311      96.741929      301.41561     -166.12191     -88070.223     -87565.274      21580.175     -109145.45    
    935000   935000         0.35988445     0.37049582     350.15726      256.18671      93.970556      96.741324      303.74051      398.19915     -86382.47      -87592.849      21746.629     -109339.48    
    936000   936000         0.35999648     0.31441909     357.54704      246.77805      110.76899      96.745073      302.46819      514.68133     -85935.369     -87499.812      21655.536     -109155.35    
    937000   937000         0.35991045     0.3586724      354.39513      257.31246      97.082675      96.748722      301.43799     -344.99302     -88478.915     -87430.263      21581.777     -109012.04    
    938000   938000         0.36003374     0.32647833     353.90094      247.20914      106.6918       96.748047      302.41707      29.908911     -87561.348     -87652.26       21651.876     -109304.14    
    939000   939000         0.35991711     0.35333631     345.47155      246.91579      98.555762      96.753746      302.96724     -139.41709     -88036.352     -87612.575      21691.266     -109303.84    
    940000   940000         0.36000453     0.33868845     356.7361       253.88898      102.84713      96.757491      302.01229      1158.3359     -84145.965     -87666.882      21622.895     -109289.78    
    941000   941000         0.35989239     0.36617417     340.22024      245.11979      95.100444      96.760384      301.6031       811.8463      -85328.441     -87796.157      21593.599     -109389.76    
    942000   942000         0.35969168     0.393938       344.72014      256.37217      88.347974      96.759603      301.65842      347.88129     -86728.416     -87785.848      21597.559     -109383.41    
    943000   943000         0.35974065     0.34764555     349.10392      248.98246      100.12146      96.755202      300.24177      1368.9203     -83812.896     -87973.912      21496.133     -109470.05    
    944000   944000         0.3594103      0.41082187     345.80444      261.15464      84.649804      96.758472      301.76768     -76.254284     -88044.512     -87812.727      21605.382     -109418.11    
    945000   945000         0.35962836     0.47127052     331.29052      257.45628      73.834236      96.755158      300.70437      94.951872     -87597.49      -87886.109      21529.253     -109415.36    
    946000   946000         0.35977072     0.35550023     342.3713       244.45377      97.917526      96.755241      303.58115     -791.55066     -90046.271     -87640.247      21735.219     -109375.47    
    947000   947000         0.35962943     0.3656106      350.40958      255.2379       95.171682      96.754529      304.17989      673.98216     -85642.663     -87691.322      21778.087     -109469.41    
    948000   948000         0.35960859     0.33536455     349.02394      245.27378      103.75016      96.755544      302.04305     -254.64521     -88426.939     -87652.911      21625.097     -109278.01    
    949000   949000         0.35920091     0.33723884     359.30771      256.25121      103.0565       96.755474      304.58412     -138.86335     -88247.486     -87825.392      21807.028     -109632.42    
    950000   950000         0.35949626     0.37865257     340.44714      248.58546      91.861684      96.756675      302.35158      523.92748     -86167.508     -87760.055      21647.187     -109407.24    
    951000   951000         0.35957474     0.37775321     342.39841      250.29797      92.100431      96.756612      302.53607      764.65806     -85444.431     -87768.712      21660.396     -109429.11    
    952000   952000         0.35913733     0.35630821     346.85582      249.33455      97.521272      96.753042      301.1969       353.44072     -86828.833     -87903.163      21564.516     -109467.68    
    953000   953000         0.35920216     0.40435351     339.30265      253.35789      85.944762      96.747931      302.38491      566.10739     -86106.751     -87827.511      21649.573     -109477.08    
    954000   954000         0.35917641     0.34848817     360.3488       260.63857      99.710224      96.743084      303.10177      360.44467     -86683.345     -87778.965      21700.898     -109479.86    
    955000   955000         0.35929622     0.30315096     362.0037       247.35203      114.65167      96.735679      301.37785      480.27836     -86333.048     -87792.918      21577.472     -109370.39    
    956000   956000         0.35927583     0.38599736     347.07572      257.03284      90.042875      96.739912      299.27771      231.67359     -87076.763     -87780.966      21427.11      -109208.08    
    957000   957000         0.35924931     0.34280823     352.92665      251.55321      101.37344      96.734072      299.85778     -68.279444     -88296.922     -88089.377      21468.64      -109558.02    
    958000   958000         0.35946368     0.30133378     359.34988      243.95156      115.39833      96.736933      302.53902      380.42155     -86843.661     -88000.003      21660.607     -109660.61    
    959000   959000         0.35933872     0.32855527     353.55595      247.75659      105.79936      96.735852      299.76615     -653.37258     -90093.438     -88107.425      21462.08      -109569.5     
    960000   960000         0.35950082     0.30726433     357.29704      244.1109       113.18615      96.73988       299.46378     -652.5057      -89958.284     -87974.906      21440.432     -109415.34    
    961000   961000         0.35940726     0.37111058     351.70434      258.01514      93.689208      96.739994      299.2255       271.73183     -87195.502     -88021.468      21423.372     -109444.84    
    962000   962000         0.3593746      0.39770311     342.56454      255.15252      87.412023      96.734808      299.5578       3.4682113     -88011.614     -88022.156      21447.163     -109469.32    
    963000   963000         0.35942263     0.37516145     344.71969      252.03894      92.68075       96.739161      296.66583      828.04324     -85518.867     -88035.815      21240.11      -109275.92    
    964000   964000         0.35957441     0.30314569     358.468        243.72457      114.74343      96.736517      300.86675      1119.6063     -84430.948     -87834.141      21540.879     -109375.02    
    965000   965000         0.35953176     0.36113097     350.11206      253.80469      96.307374      96.735754      302.10293      235.24686     -87151.169     -87866.234      21629.384     -109495.62    
    966000   966000         0.35955986     0.34538726     346.33597      245.62867      100.7073       96.737764      299.30523      748.83874     -85519.573     -87795.768      21429.08      -109224.85    
    967000   967000         0.35933712     0.36988427     346.42472      252.44464      93.980086      96.738561      300.93457      501.36299     -86279.349     -87803.309      21545.735     -109349.04    
    968000   968000         0.35923546     0.37204965     348.33192      254.93279      93.399129      96.730744      299.55579     -26.014295     -88084.701     -88005.627      21447.019     -109452.65    
    969000   969000         0.35941579     0.40461134     337.46636      251.54726      85.919095      96.723184      301.43504     -330.37464     -88962.604     -87958.386      21581.566     -109539.95    
    970000   970000         0.35915477     0.38436966     341.22606      250.84478      90.381279      96.726605      301.58777      181.78711     -87355.323     -87907.889      21592.501     -109500.39    
    971000   971000         0.35916226     0.36023206     347.6053       251.17365      96.431644      96.718877      299.57842      169.21573     -87435.45      -87949.804      21448.64      -109398.44    
    972000   972000         0.35936615     0.42024998     346.92273      264.2185       82.704231      96.715984      300.85062      108.67047     -87697.806     -88028.124      21539.724     -109567.85    
    973000   973000         0.3596105      0.36449164     355.34794      259.92834      95.419599      96.714768      298.94855     -2.2424822     -88027.53      -88020.713      21403.544     -109424.26    
    974000   974000         0.35972677     0.32695347     358.68531      252.27263      106.41268      96.717835      301.40817     -303.23703     -88610.85      -87689.121      21579.642     -109268.76    
    975000   975000         0.35961642     0.39232844     342.27975      253.63074      88.649018      96.712857      299.94646      3.5249582     -87811.896     -87822.61       21474.99      -109297.6     
    976000   976000         0.35951981     0.31185159     351.2356       239.73671      111.49889      96.715405      299.74492     -313.05878     -88848.152     -87896.568      21460.56      -109357.13    
    977000   977000         0.35968986     0.37469332     345.99105      253.15141      92.839634      96.71218       302.55344      143.37323     -87406.237     -87842.039      21661.639     -109503.68    
    978000   978000         0.35941769     0.36302583     350.86967      255.11729      95.752378      96.713621      301.08877      785.72814     -85537.545     -87925.871      21556.775     -109482.65    
    979000   979000         0.3594719      0.37321461     341.3048       248.15654      93.148253      96.709335      300.26889      563.41592     -86230.496     -87943.074      21498.074     -109441.15    
    980000   980000         0.35961639     0.28123514     367.1878       243.52127      123.66653      96.712431      302.87104      152.73431     -87406.48      -87870.736      21684.378     -109555.11    
    981000   981000         0.35955434     0.40042378     350.43533      263.59057      86.844763      96.716141      300.08776      743.40215     -85664.443     -87924.114      21485.106     -109409.22    
    982000   982000         0.35979949     0.35864414     355.33173      258.30579      97.02594       96.714381      302.55656     -172.42904     -88375.645     -87851.524      21661.862     -109513.39    
    983000   983000         0.35990101     0.36952337     353.43435      259.24075      94.193592      96.711964      299.29272      457.03734     -86531.872     -87921.098      21428.185     -109349.28    
    984000   984000         0.35979252     0.36969318     346.62947      252.50485      94.124612      96.714702      299.86314      503.94586     -86374.453     -87906.264      21469.024     -109375.29    
    985000   985000         0.359851       0.41716819     335.50932      252.08471      83.424611      96.712511      300.99708      681.5323      -85913.433     -87985.042      21550.21      -109535.25    
    986000   986000         0.36003597     0.31474757     350.7878       240.16004      110.62776      96.712051      300.85601     -506.00602     -89445.5       -87907.427      21540.11      -109447.54    
    987000   987000         0.35994192     0.34438307     347.64119      246.55899      101.08219      96.712814      302.99535      153.95696     -87343.016     -87810.988      21693.278     -109504.27    
    988000   988000         0.36007001     0.32311325     351.9646       244.18661      107.77799      96.715908      300.52414      94.721347     -87519.959     -87807.878      21516.349     -109324.23    
    989000   989000         0.35970363     0.32718989     360.27792      253.94983      106.32809      96.717058      300.99792     -593.04905     -89603.638     -87800.986      21550.27      -109351.26    
    990000   990000         0.35979609     0.36888781     344.59965      250.26899      94.330655      96.714306      302.64094      66.180274     -87592.637     -87793.801      21667.904     -109461.71    
    991000   991000         0.35971849     0.3733198      345.62909      252.43836      93.190737      96.714369      300.83405      639.34894     -85850.209     -87793.596      21538.538     -109332.13    
    992000   992000         0.35992251     0.28369391     360.67122      237.96155      122.70967      96.720777      301.91922     -6.4875905     -87836.814     -87817.094      21616.231     -109433.33    
    993000   993000         0.35974624     0.36739474     343.97793      249.27485      94.70308       96.716545      300.15804     -257.17072     -88478.793     -87697.088      21490.138     -109187.23    
    994000   994000         0.35959743     0.30869743     359.64505      246.98029      112.66477      96.717386      303.9257       1084.6298     -84376.967     -87673.845      21759.887     -109433.73    
    995000   995000         0.35968062     0.36619338     349.53822      254.54035      94.997868      96.718         304.1147       797.99246     -85309.847     -87735.452      21773.42      -109508.87    
    996000   996000         0.35939731     0.36539729     339.6977       244.56891      95.128783      96.716915      300.93998     -314.34041     -88560.153     -87604.673      21546.122     -109150.79    
    997000   997000         0.35942945     0.39659607     340.98152      253.32904      87.652481      96.716141      301.03139      272.03732     -86981.046     -87807.94       21552.666     -109360.61    
    998000   998000         0.35932921     0.36764031     344.78546      250.25462      94.530845      96.717294      301.02555     -49.665605     -87871.736     -87720.771      21552.248     -109273.02    
    999000   999000         0.35936072     0.31444805     349.75345      239.22074      110.53271      96.718403      301.85437      139.22091     -87480.76      -87903.941      21611.588     -109515.53    
   1000000   1000000        0.35936178     0.30721394     359.67145      246.53076      113.14068      96.722572      301.59566      371.32804     -86646.495     -87775.196      21593.066     -109368.26    
   1001000   1001000        0.35927118     0.30723971     357.64153      244.53562      113.10592      96.725346      301.30556     -37.938611     -88139.773     -88024.453      21572.296     -109596.75    
   1002000   1002000        0.3591408      0.39353798     337.25981      248.98643      88.273379      96.727876      301.59674      498.07131     -86388.807     -87902.761      21593.143     -109495.9     
   1003000   1003000        0.35938604     0.30868965     362.44748      249.83453      112.61296      96.727334      302.54919     -5.914997      -87776.056     -87758.077      21661.335     -109419.41    
   1004000   1004000        0.35961228     0.28702543     367.04798      245.85676      121.19122      96.729073      301.05439      52.945837     -87551.727     -87712.663      21554.313     -109266.98    
   1005000   1005000        0.35934103     0.35641964     347.63298      250.11203      97.52095       96.728117      300.552        443.72294     -86301.738     -87650.494      21518.344     -109168.84    
   1006000   1006000        0.35935792     0.45290791     333.15546      256.40625      76.749215      96.728984      300.76839     -552.41866     -89361.294     -87682.143      21533.837     -109215.98    
   1007000   1007000        0.35927806     0.35145931     352.8807       254.00431      98.876391      96.724604      301.95061      381.48635     -86507.219     -87666.798      21618.479     -109285.28    
   1008000   1008000        0.35939444     0.33247263     351.03754      246.47727      104.56028      96.727792      301.70526      140.2704      -87313.824     -87740.194      21600.913     -109341.11    
   1009000   1009000        0.35919999     0.39429692     335.52231      247.40805      88.114263      96.723785      301.59081      201.10409     -87133.027     -87744.31       21592.719     -109337.03    
   1010000   1010000        0.35921788     0.36569141     347.07937      252.06905      95.010313      96.72251       301.57119     -293.89089     -88706.705     -87813.384      21591.314     -109404.7     
   1011000   1011000        0.35916811     0.38650001     347.59049      257.70631      89.884182      96.724169      300.87344      27.060984     -87584.203     -87666.458      21541.358     -109207.82    
   1012000   1012000        0.35941721     0.30653352     354.51602      241.1055       113.41052      96.7236        301.38351     -225.95596     -88431.613     -87744.79       21577.877     -109322.67    
   1013000   1013000        0.35909952     0.36923329     341.2169       247.14408      94.072828      96.727559      303.97567      709.62502     -85530.853     -87687.854      21763.465     -109451.32    
   1014000   1014000        0.35875379     0.36706942     347.75329      253.2183       94.534981      96.726228      304.47373     -96.657291     -88008.495     -87714.693      21799.124     -109513.82    
   1015000   1015000        0.35917536     0.32869096     362.19362      256.49532      105.6983       96.727334      302.44144     -289.61487     -88551.907     -87671.584      21653.621     -109325.2     
   1016000   1016000        0.35894347     0.46108366     338.72044      263.41966      75.300782      96.728212      302.35019     -74.314916     -87807.914     -87582.024      21647.087     -109229.11    
   1017000   1017000        0.35889779     0.39149886     338.094        249.42329      88.670708      96.725256      302.57794      110.17165     -87401.498     -87736.38       21663.393     -109399.77    
   1018000   1018000        0.35888424     0.36075457     344.57207      248.34975      96.222319      96.723783      303.11457      752.78857     -85183.718     -87471.919      21701.814     -109173.73    
   1019000   1019000        0.35891318     0.32978067     359.77407      254.50647      105.26761      96.723176      304.38118      224.43041     -86720.982     -87403.168      21792.499     -109195.67    
   1020000   1020000        0.35906786     0.33111786     358.26241      253.3705       104.8919       96.727071      303.15429     -710.52747     -89626.367     -87466.624      21704.658     -109171.28    
   1021000   1021000        0.35889289     0.35209761     352.92969      254.33089      98.598802      96.731931      303.08632      0.60721303    -87595.025     -87596.87       21699.791     -109296.66    
Loop time of 16132.1 on 32 procs for 1000000 steps with 24020 atoms

Performance: 5.356 ns/day, 4.481 hours/ns, 61.988 timesteps/s, 1.489 Matom-step/s
99.7% CPU use with 32 MPI tasks x 1 OpenMP threads

MPI task timing breakdown:
Section |  min time  |  avg time  |  max time  |%varavg| %total
---------------------------------------------------------------
Pair    | 10280      | 11257      | 12467      | 620.2 | 69.78
Bond    | 317.16     | 343.73     | 388.92     | 105.8 |  2.13
Kspace  | 1906.4     | 3164.1     | 4148.4     |1194.4 | 19.61
Neigh   | 739.87     | 741.45     | 742.51     |   2.7 |  4.60
Comm    | 369.04     | 382.83     | 403.91     |  48.4 |  2.37
Output  | 0.18797    | 0.19896    | 0.48185    |  11.4 |  0.00
Modify  | 193.29     | 205.94     | 219.04     |  43.7 |  1.28
Other   |            | 36.77      |            |       |  0.23

Nlocal:        750.625 ave         782 max         692 min
Histogram: 1 0 1 1 4 3 7 6 7 2
Nghost:        11323.1 ave       11447 max       11155 min
Histogram: 2 1 2 3 4 4 5 5 1 5
Neighs:         497016 ave      521312 max      446022 min
Histogram: 1 0 2 1 1 7 3 5 6 6

Total # of neighbors = 15904527
Ave neighs/atom = 662.13684
Ave special neighs/atom = 11.983347
Neighbor list builds = 37519
Dangerous builds = 0
Total wall time: 4:34:16
