units real
atom_style full
boundary p p p

# styles
pair_style lj/charmm/coul/long 8.0 12.0
kspace_style pppm 1e-6
dielectric 1.000000
bond_style harmonic
angle_style harmonic
dihedral_style fourier
improper_style cvff
special_bonds amber
pair_modify mix arithmetic
neighbor 2.0 bin
neigh_modify delay 0 every 1 check yes

# system definition
read_data ../final.data
Reading data file ...
  orthogonal box = (-27.956921 -32.298732 -28.85231) to (27.956921 32.298732 28.85231)
  2 by 4 by 4 MPI processor grid
  reading atoms ...
  24020 atoms
  reading velocities ...
  24020 velocities
  scanning bonds ...
  3 = max bonds/atom
  scanning angles ...
  6 = max angles/atom
  scanning dihedrals ...
  27 = max dihedrals/atom
  reading bonds ...
  24010 bonds
  reading angles ...
  48000 angles
  reading dihedrals ...
  71910 dihedrals
Finding 1-2 1-3 1-4 neighbors ...
  special bond factors lj:    0        0        0.5     
  special bond factors coul:  0        0        0.8333333333333334
     4 = max # of 1-2 neighbors
    12 = max # of 1-3 neighbors
    24 = max # of 1-4 neighbors
    28 = max # of special neighbors
  special bonds CPU = 0.122 seconds
  read_data CPU = 0.807 seconds
# do not reset velocities

# vars
variable dt equal 1.0
variable tLog equal 1000
variable nEvery equal 10
variable nRepeat equal 100
variable boolDump equal 0
variable tDump equal 1000

variable tPreeq equal 10000
variable tPrerun equal 10000
variable tDelay equal 1000
variable tTCrun equal 1000000

# desiered temperature difference
variable Tavg equal 300.0
variable TempDiff equal 100.0
variable Thi equal ${Tavg}+(${TempDiff}/2)
variable Thi equal 300+(${TempDiff}/2)
variable Thi equal 300+(100/2)
variable Tlo equal ${Tavg}-(${TempDiff}/2)
variable Tlo equal 300-(${TempDiff}/2)
variable Tlo equal 300-(100/2)

# defining regions
variable hot_lo equal (lx*0)+xlo
variable hot_hi equal (lx*0.05)+xlo
variable cold_lo equal (lx*0.50)+xlo
variable cold_hi equal (lx*0.55)+xlo

# define heating and cooling block regions
region hot block ${hot_lo} ${hot_hi} INF INF INF INF units box
region hot block -27.9569210852141 ${hot_hi} INF INF INF INF units box
region hot block -27.9569210852141 -25.1612289766927 INF INF INF INF units box
region cold block ${cold_lo} ${cold_hi} INF INF INF INF units box
region cold block 0 ${cold_hi} INF INF INF INF units box
region cold block 0 2.79569210852141 INF INF INF INF units box
compute Thot all temp/region hot
compute Tcold all temp/region cold

# STEP 1 - 1st equilibration (nve)
# 1a - thermo output for md1
thermo_style custom step time temp c_Thot c_Tcold press enthalpy etotal ke pe
thermo_modify colname c_Thot Temp_hot colname c_Tcold Temp_cold
thermo_modify flush yes
thermo ${tLog}
thermo 1000

# 1b - nve equilibration
timestep ${dt}
timestep 1
fix md1 all nve
run ${tPreeq}
run 10000
PPPM initialization ...
  using 12-bit tables for long-range coulomb (src/kspace.cpp:342)
  G vector (1/distance) = 0.25883856
  grid = 45 50 45
  stencil order = 5
  estimated absolute RMS force accuracy = 0.0003737492
  estimated relative force accuracy = 1.1255346e-06
  using double precision FFTW3
  3d grid and FFT values/proc = 9918 4500
Generated 3 of 3 mixed pair_coeff terms from arithmetic mixing rule
Neighbor list info ...
  update: every = 1 steps, delay = 0 steps, check = yes
  max neighbors/atom: 2000, page size: 100000
  master list distance cutoff = 14
  ghost atom cutoff = 14
  binsize = 7, bins = 8 10 9
  1 neighbor lists, perpetual/occasional/extra = 1 0 0
  (1) pair lj/charmm/coul/long, perpetual
      attributes: half, newton on
      pair build: half/bin/newton
      stencil: half/bin/3d
      bin: standard
Per MPI rank memory allocation (min/avg/max) = 21.64 | 21.99 | 22.2 Mbytes
   Step          Time           Temp         Temp_hot      Temp_cold        Press         Enthalpy        TotEng         KinEng         PotEng    
         0   0              299.31856      292.27218      301.43478      529.8002      -86442.089     -88052.488      21430.034     -109482.52    
      1000   1000           298.4305       303.18282      306.97046      197.31813     -87453.057     -88052.832      21366.453     -109419.28    
      2000   2000           298.89996      294.84601      309.09691     -303.14149     -88979.205     -88057.766      21400.064     -109457.83    
      3000   3000           301.61727      302.92071      312.77015     -130.11563     -88459.098     -88063.594      21594.613     -109658.21    
      4000   4000           298.25845      300.08196      295.61206      106.7854      -87731.653     -88056.242      21354.134     -109410.38    
      5000   5000           298.84073      295.33704      290.12904     -284.27472     -88911.752     -88047.661      21395.824     -109443.48    
      6000   6000           299.47001      301.61039      292.53451      434.12065     -86743.031     -88062.599      21440.878     -109503.48    
      7000   7000           298.37277      290.83349      296.28388     -35.045455     -88161.82      -88055.295      21362.32      -109417.61    
      8000   8000           298.86132      302.6492       294.46145      249.56809     -87298.095     -88056.691      21397.298     -109453.99    
      9000   9000           298.65159      301.26351      295.64725     -32.826304     -88154.793     -88055.013      21382.282     -109437.3     
     10000   10000          299.44555      298.60945      289.79724      210.20371     -87419.091     -88058.033      21439.126     -109497.16    
Loop time of 161.956 on 32 procs for 10000 steps with 24020 atoms

Performance: 5.335 ns/day, 4.499 hours/ns, 61.745 timesteps/s, 1.483 Matom-step/s
99.8% CPU use with 32 MPI tasks x 1 OpenMP threads

MPI task timing breakdown:
Section |  min time  |  avg time  |  max time  |%varavg| %total
---------------------------------------------------------------
Pair    | 102.51     | 113.22     | 130.34     |  59.5 | 69.91
Bond    | 2.9614     | 3.4213     | 3.9181     |  12.5 |  2.11
Kspace  | 15.866     | 33.391     | 44.448     | 112.6 | 20.62
Neigh   | 7.3986     | 7.419      | 7.4332     |   0.4 |  4.58
Comm    | 3.5946     | 3.8481     | 4.094      |   6.6 |  2.38
Output  | 0.0010394  | 0.00124    | 0.0032096  |   1.0 |  0.00
Modify  | 0.10568    | 0.11622    | 0.1272     |   1.7 |  0.07
Other   |            | 0.534      |            |       |  0.33

Nlocal:        750.625 ave         797 max         715 min
Histogram: 5 1 3 4 8 3 3 2 1 2
Nghost:          11324 ave       11448 max       11165 min
Histogram: 2 0 2 4 3 7 5 4 2 3
Neighs:         497018 ave      534126 max      462194 min
Histogram: 4 4 1 2 5 2 5 5 1 3

Total # of neighbors = 15904587
Ave neighs/atom = 662.13934
Ave special neighs/atom = 11.983347
Neighbor list builds = 370
Dangerous builds = 0
unfix md1

# STEP 2 - pre run
# 2a - impose nve
fix md2 all nve

# 2b - impose thermostating
fix hot all langevin ${Thi} ${Thi} 100.0 57485 tally yes
fix hot all langevin 350 ${Thi} 100.0 57485 tally yes
fix hot all langevin 350 350 100.0 57485 tally yes
fix cold all langevin ${Tlo} ${Tlo} 100.0 12490 tally yes
fix cold all langevin 250 ${Tlo} 100.0 12490 tally yes
fix cold all langevin 250 250 100.0 12490 tally yes
fix_modify hot temp Thot
fix_modify cold temp Tcold
# calculate tdiff of regions
variable tdiff equal c_Thot-c_Tcold

# 2c - thermo output
thermo_style custom step time temp c_Thot c_Tcold f_hot f_cold v_tdiff press enthalpy etotal ke pe
WARNING: New thermo_style command, previous thermo_modify settings will be lost (src/output.cpp:904)
thermo_modify colname c_Thot Temp_hot colname c_Tcold Temp_cold               colname f_hot E_hot colname f_cold E_cold               colname v_tdiff dTemp_step
thermo_modify flush yes
thermo ${tLog}
thermo 1000

# 2d - pre run
run ${tPrerun}
run 10000
PPPM initialization ...
  using 12-bit tables for long-range coulomb (src/kspace.cpp:342)
  G vector (1/distance) = 0.25883856
  grid = 45 50 45
  stencil order = 5
  estimated absolute RMS force accuracy = 0.0003737492
  estimated relative force accuracy = 1.1255346e-06
  using double precision FFTW3
  3d grid and FFT values/proc = 9918 4500
Generated 3 of 3 mixed pair_coeff terms from arithmetic mixing rule
Per MPI rank memory allocation (min/avg/max) = 22.39 | 22.81 | 22.95 Mbytes
   Step          Time           Temp         Temp_hot      Temp_cold        E_hot          E_cold       dTemp_step       Press         Enthalpy        TotEng         KinEng         PotEng    
     10000   10000          299.44555      298.66825      289.79724     -0             -0              8.8710052      210.20371     -87419.091     -88058.033      21439.126     -109497.16    
     11000   11000          300.0474       362.17367      262.42934     -1007.6455      938.76504      99.744334      925.41426     -85161.916     -87974.836      21482.217     -109457.05    
     12000   12000          297.6577       344.34656      257.88006     -1222.3283      1272.1201      86.4665       -528.0238      -89694.703     -88089.704      21311.124     -109400.83    
     13000   13000          297.78981      347.72274      247.64783     -1382.3686      1511.9642      100.07491     -1053.8518     -91367.114     -88163.791      21320.582     -109484.37    
     14000   14000          298.12213      359.93325      246.38867     -1462.9453      1712.4848      113.54457      5.7618435     -88268.801     -88286.315      21344.375     -109630.69    
     15000   15000          299.56005      348.35472      255.1493      -1752.9936      1857.1619      93.205417      248.54264     -87374.283     -88129.762      21447.324     -109577.09    
     16000   16000          299.91637      352.02242      258.81246     -1837.9292      2083.8504      93.209962     -135.13136     -88674.957     -88264.208      21472.835     -109737.04    
     17000   17000          295.92506      355.45683      256.70542     -1987.339       2185.95        98.751407      44.23492      -88075.481     -88209.939      21187.073     -109397.01    
     18000   18000          299.15276      344.31747      253.39289     -2024.9376      2333.7161      90.924582     -417.59522     -89596.077     -88326.74       21418.164     -109744.9     
     19000   19000          296.39476      360.21406      249.07062     -2022.0124      2432.3064      111.14344      648.49065     -86448.277     -88419.452      21220.702     -109640.15    
     20000   20000          294.73559      345.87765      253.82942     -2097.6816      2613.581       92.048226     -548.55521     -90183.328     -88515.921      21101.912     -109617.83    
Loop time of 162.271 on 32 procs for 10000 steps with 24020 atoms

Performance: 5.324 ns/day, 4.508 hours/ns, 61.625 timesteps/s, 1.480 Matom-step/s
99.8% CPU use with 32 MPI tasks x 1 OpenMP threads

MPI task timing breakdown:
Section |  min time  |  avg time  |  max time  |%varavg| %total
---------------------------------------------------------------
Pair    | 101.05     | 112.57     | 128.89     |  59.9 | 69.37
Bond    | 2.9643     | 3.4266     | 3.8971     |  12.7 |  2.11
Kspace  | 15.843     | 32.588     | 44.502     | 114.4 | 20.08
Neigh   | 7.5419     | 7.5625     | 7.5794     |   0.4 |  4.66
Comm    | 3.6049     | 3.8346     | 4.071      |   6.0 |  2.36
Output  | 0.0013335  | 0.0014555  | 0.0033377  |   0.9 |  0.00
Modify  | 1.7829     | 1.9221     | 2.0582     |   5.5 |  1.18
Other   |            | 0.3629     |            |       |  0.22

Nlocal:        750.625 ave         794 max         705 min
Histogram: 1 1 4 4 7 5 4 1 3 2
Nghost:        11326.2 ave       11430 max       11187 min
Histogram: 3 0 0 6 2 4 6 7 2 2
Neighs:         496976 ave      531804 max      452803 min
Histogram: 1 3 2 4 1 6 4 5 3 3

Total # of neighbors = 15903219
Ave neighs/atom = 662.08239
Ave special neighs/atom = 11.983347
Neighbor list builds = 378
Dangerous builds = 0
unfix md2

# STEP 3 - md for tc caluclation
# 3a - impose nve
fix md3 all nve

# 3b - calculate and output thermal profile
compute ke all ke/atom
variable temp atom c_ke/(1.5*0.001987204)
compute layers all chunk/atom bin/1d x lower 0.05 units reduced
fix bins all ave/chunk ${nEvery} ${nRepeat} ${tLog} layers v_temp file Tprofile_x_lav.dat
fix bins all ave/chunk 10 ${nRepeat} ${tLog} layers v_temp file Tprofile_x_lav.dat
fix bins all ave/chunk 10 100 ${tLog} layers v_temp file Tprofile_x_lav.dat
fix bins all ave/chunk 10 100 1000 layers v_temp file Tprofile_x_lav.dat

# 3c - reset thermostats to zero energy accumulation
fix hot all langevin ${Thi} ${Thi} 100.0 57485 tally yes
fix hot all langevin 350 ${Thi} 100.0 57485 tally yes
fix hot all langevin 350 350 100.0 57485 tally yes
fix cold all langevin ${Tlo} ${Tlo} 100.0 12490 tally yes
fix cold all langevin 250 ${Tlo} 100.0 12490 tally yes
fix cold all langevin 250 250 100.0 12490 tally yes
fix_modify hot temp Thot
fix_modify cold temp Tcold

# 3c - compute average tdiff
fix ave all ave/time ${nEvery} ${nRepeat} ${tLog} v_tdiff ave running
fix ave all ave/time 10 ${nRepeat} ${tLog} v_tdiff ave running
fix ave all ave/time 10 100 ${tLog} v_tdiff ave running
fix ave all ave/time 10 100 1000 v_tdiff ave running

# 3d - time delay run
variable aTime equal time
variable start_time equal ${aTime}
variable start_time equal 20000
run ${tDelay}
run 1000
PPPM initialization ...
  using 12-bit tables for long-range coulomb (src/kspace.cpp:342)
  G vector (1/distance) = 0.25883856
  grid = 45 50 45
  stencil order = 5
  estimated absolute RMS force accuracy = 0.0003737492
  estimated relative force accuracy = 1.1255346e-06
  using double precision FFTW3
  3d grid and FFT values/proc = 9918 4500
Generated 3 of 3 mixed pair_coeff terms from arithmetic mixing rule
Per MPI rank memory allocation (min/avg/max) = 22.65 | 23.07 | 23.2 Mbytes
   Step          Time           Temp         Temp_hot      Temp_cold        E_hot          E_cold       dTemp_step       Press         Enthalpy        TotEng         KinEng         PotEng    
     20000   20000          294.73559      345.87765      253.82942     -0             -0              92.048226     -548.55521     -90183.328     -88515.921      21101.912     -109617.83    
     21000   21000          297.40553      346.47285      252.00587     -213.07421      35.989025      94.466982     -153.30228     -88806.546     -88340.563      21293.069     -109633.63    
Loop time of 16.1893 on 32 procs for 1000 steps with 24020 atoms

Performance: 5.337 ns/day, 4.497 hours/ns, 61.769 timesteps/s, 1.484 Matom-step/s
99.8% CPU use with 32 MPI tasks x 1 OpenMP threads

MPI task timing breakdown:
Section |  min time  |  avg time  |  max time  |%varavg| %total
---------------------------------------------------------------
Pair    | 10.184     | 11.29      | 12.882     |  20.0 | 69.74
Bond    | 0.28946    | 0.34236    | 0.39437    |   4.3 |  2.11
Kspace  | 1.5829     | 3.2197     | 4.3597     |  38.5 | 19.89
Neigh   | 0.71909    | 0.72141    | 0.72303    |   0.1 |  4.46
Comm    | 0.35466    | 0.38183    | 0.40816    |   2.1 |  2.36
Output  | 0.00012598 | 0.00013527 | 0.0002792  |   0.0 |  0.00
Modify  | 0.18732    | 0.19842    | 0.21403    |   1.5 |  1.23
Other   |            | 0.03533    |            |       |  0.22

Nlocal:        750.625 ave         796 max         702 min
Histogram: 1 3 4 4 3 5 2 6 3 1
Nghost:          11335 ave       11449 max       11171 min
Histogram: 2 0 1 3 4 4 9 3 2 4
Neighs:         497081 ave      535637 max      447524 min
Histogram: 1 5 2 1 2 4 6 3 5 3

Total # of neighbors = 15906586
Ave neighs/atom = 662.22256
Ave special neighs/atom = 11.983347
Neighbor list builds = 36
Dangerous builds = 0

# 3f - calculate kappa
variable kappa_inst equal (0.5*(abs(f_hot)+abs(f_cold))/(time-${start_time})/(ly*lz)/2.0)*(lx/2.0)/v_tdiff*69478.5785
variable kappa_inst equal (0.5*(abs(f_hot)+abs(f_cold))/(time-20000)/(ly*lz)/2.0)*(lx/2.0)/v_tdiff*69478.5785
variable kappa equal (0.5*(abs(f_hot)+abs(f_cold))/(time-${start_time})/(ly*lz)/2.0)*(lx/2.0)/f_ave*69478.5785
variable kappa equal (0.5*(abs(f_hot)+abs(f_cold))/(time-20000)/(ly*lz)/2.0)*(lx/2.0)/f_ave*69478.5785

# 3e - thermo out
# dump dump_tc all custom 1000 dump.tc_x_ehex.lammpstrj id type mol x y z ix iy iz vx vy vz
thermo_style custom step time v_kappa v_kappa_inst c_Thot c_Tcold v_tdiff f_ave temp press enthalpy etotal ke pe
WARNING: New thermo_style command, previous thermo_modify settings will be lost (src/output.cpp:904)
thermo_modify colname v_kappa kappa colname v_kappa_inst kappa_inst               colname c_Thot Temp_hot colname c_Tcold Temp_cold               colname v_tdiff dTemp_step colname f_ave dTemp
thermo_modify flush yes
thermo ${tLog}
thermo 1000

# 2g - md run for kappa calculation
# optional traj dump
if "${boolDump} == 1" then     "dump tc_dump all atom ${tDump} dump.tc_x.lammpstrj"
run ${tTCrun}
run 1000000
PPPM initialization ...
  using 12-bit tables for long-range coulomb (src/kspace.cpp:342)
  G vector (1/distance) = 0.25883856
  grid = 45 50 45
  stencil order = 5
  estimated absolute RMS force accuracy = 0.0003737492
  estimated relative force accuracy = 1.1255346e-06
  using double precision FFTW3
  3d grid and FFT values/proc = 9918 4500
Generated 3 of 3 mixed pair_coeff terms from arithmetic mixing rule
Per MPI rank memory allocation (min/avg/max) = 22.9 | 23.32 | 23.45 Mbytes
   Step          Time          kappa        kappa_inst      Temp_hot      Temp_cold      dTemp_step       dTemp           Temp          Press         Enthalpy        TotEng         KinEng         PotEng    
     21000   21000          0              0              348.57368      252.00587      96.567807      95.685386      297.40553     -153.30228     -88806.546     -88340.563      21293.069     -109633.63    
     22000   22000          0.2405331      0.23852652     347.72126      249.77321      97.948052      97.130947      296.92653      118.46122     -87925.901     -88285.979      21258.774     -109544.75    
     23000   23000          0.28739723     0.332803       341.72145      256.17799      85.543461      99.058437      299.0388      -3.7031476     -88320.503     -88309.247      21410.005     -109719.25    
     24000   24000          0.27479623     0.25396719     351.84313      245.49128      106.35185      98.290573      296.2397       182.96049     -87917.428     -88473.561      21209.6       -109683.16    
     25000   25000          0.3360281      0.32603555     353.02667      251.99695      101.02972      98.025373      298.51693      2.3004065     -88339.675     -88346.668      21372.641     -109719.31    
     26000   26000          0.29736217     0.29535528     349.73535      250.99936      98.735988      98.06962       296.79866      134.07104     -87999.792     -88407.319      21249.619     -109656.94    
     27000   27000          0.28623241     0.31424983     345.95192      256.99914      88.952785      97.659793      296.22527      134.09881     -88098.046     -88505.657      21208.567     -109714.22    
     28000   28000          0.29595288     0.34164406     338.35929      254.07269      84.286599      97.299325      293.99576      545.03323     -86910.288     -88566.989      21048.943     -109615.93    
     29000   29000          0.3084437      0.27988315     352.82906      245.38006      107.449        97.499688      296.56835     -341.34913     -89642.605     -88605.028      21233.131     -109838.16    
     30000   30000          0.30981303     0.30747189     349.4038       251.12597      98.277821      97.535174      295.05927     -329.4868      -89575.492     -88573.973      21125.086     -109699.06    
     31000   31000          0.30237099     0.41317303     334.59089      263.48308      71.107813      97.164848      294.67909     -147.04724     -89104.722     -88657.753      21097.867     -109755.62    
     32000   32000          0.29782784     0.30272696     343.08942      247.74442      95.345002      96.91338       290.97905     -104.6001      -89120.72      -88802.774      20832.958     -109635.73    
     33000   33000          0.30985843     0.26733306     361.26512      249.1461       112.11903      96.731666      297.39692      494.55476     -87150.53      -88653.795      21292.452     -109946.25    
     34000   34000          0.30856031     0.2890056      347.97948      244.78162      103.19786      96.657794      292.96634     -778.68312     -91191.903     -88824.991      20975.241     -109800.23    
     35000   35000          0.29375612     0.27772483     349.22387      246.8434       102.38048      96.793221      295.08681      1056.7756     -85487.132     -88699.343      21127.058     -109826.4     
     36000   36000          0.29455029     0.32802675     340.63321      253.92049      86.712718      96.567859      294.29474      179.89291     -88083.664     -88630.473      21070.349     -109700.82    
     37000   37000          0.31477917     0.26864811     365.67628      252.46272      113.21356      96.622048      296.76803     -457.10853     -89812.255     -88422.813      21247.426     -109670.24    
     38000   38000          0.30244129     0.29598188     351.6533       252.79275      98.860546      96.749126      295.51829     -17.264411     -88646.068     -88593.591      21157.95      -109751.54    
     39000   39000          0.29639252     0.34905811     336.57891      254.2896       82.289313      96.91119       294.29304      397.24925     -87525.221     -88732.713      21070.227     -109802.94    
     40000   40000          0.28927102     0.27623283     348.66611      247.21569      101.45042      96.877789      295.03864      256.72869     -87841.539     -88621.901      21123.609     -109745.51    
     41000   41000          0.29822131     0.25840858     367.98159      255.91278      112.06882      97.107564      295.17445      217.04296     -87931.895     -88591.626      21133.333     -109724.96    
     42000   42000          0.28880613     0.28486233     346.30939      247.88153      98.427859      97.083774      292.86091      703.56657     -86799.797     -88938.381      20967.692     -109906.07    
     43000   43000          0.29037876     0.29333845     353.29503      257.05276      96.242267      97.223219      294.77963      43.081052     -88606.518     -88737.469      21105.065     -109842.53    
     44000   44000          0.29292776     0.2825252      345.44983      244.62663      100.8232       97.242727      292.88573     -486.73397     -90349.553     -88870.06       20969.469     -109839.53    
     45000   45000          0.29219993     0.27509861     349.10981      245.72448      103.38533      97.334589      293.91076     -591.48727     -90593.042     -88795.137      21042.857     -109837.99    
     46000   46000          0.29208785     0.30047403     342.93657      248.24614      94.690422      97.409091      293.09028      131.24612     -88528.391     -88927.332      20984.114     -109911.45    
     47000   47000          0.28967678     0.31660606     338.95957      249.75333      89.206239      97.499138      293.10376      387.40285     -87718.053     -88895.616      20985.079     -109880.69    
     48000   48000          0.29376829     0.29260239     349.23901      251.28708      97.951929      97.563181      292.81331      129.54959     -88608.804     -89002.587      20964.284     -109966.87    
     49000   49000          0.28749826     0.34790487     341.52664      260.94558      80.581055      97.512039      291.82554     -1193.7943     -92575.204     -88946.506      20893.564     -109840.07    
     50000   50000          0.30020481     0.31450945     342.78961      249.7554       93.034213      97.467257      292.19725     -383.67069     -90327.908     -89161.689      20920.177     -110081.87    
     51000   51000          0.29760076     0.27777218     354.99635      250.59249      104.40386      97.447628      293.91926     -292.3044      -89925.826     -89037.327      21043.466     -110080.79    
     52000   52000          0.29346394     0.34359762     340.49724      257.30943      83.187808      97.399132      294.15987     -86.210986     -89167.961     -88905.911      21060.692     -109966.6     
     53000   53000          0.29692264     0.29088611     354.82548      255.43423      99.391248      97.370593      294.28808      861.69998     -86220.495     -88839.747      21069.872     -109909.62    
     54000   54000          0.29851419     0.31751137     351.47852      259.80217      91.676348      97.510551      294.48881      812.30046     -86462.541     -88931.637      21084.243     -110015.88    
     55000   55000          0.29352555     0.28585926     347.26298      247.00926      100.25373      97.635303      292.66485     -258.04677     -89804.758     -89020.39       20953.655     -109974.05    
     56000   56000          0.29206061     0.26607036     353.34417      246.17249      107.17167      97.634547      292.31156     -602.04278     -90750.324     -88920.334      20928.361     -109848.69    
     57000   57000          0.28633904     0.32163512     338.77008      251.88621      86.883867      97.593759      292.47607      225.2764      -88130.21      -88814.968      20940.139     -109755.11    
     58000   58000          0.29477096     0.28208533     358.60928      256.68745      101.92183      97.535574      292.4049      -49.956758     -88890.964     -88739.114      20935.044     -109674.16    
     59000   59000          0.29531324     0.26716213     352.06889      244.27825      107.79064      97.515363      293.57861      334.84872     -87805.003     -88822.82       21019.077     -109841.9     
     60000   60000          0.29555865     0.24991272     362.93959      247.41114      115.52845      97.686298      294.88724     -172.60579     -89304.283     -88779.625      21112.77      -109892.39    
     61000   61000          0.29386386     0.2772718      344.16241      240.57665      103.58577      97.737137      293.75877      738.73794     -86520.966     -88766.459      21031.975     -109798.43    
     62000   62000          0.29186512     0.28928774     350.34936      251.72016      98.629196      97.758226      293.57106      462.75914     -87295.655     -88702.274      21018.536     -109720.81    
     63000   63000          0.28941455     0.32102062     332.29802      244.11997      88.178052      97.807707      291.82909      853.88134     -86180.465     -88775.951      20893.818     -109669.77    
     64000   64000          0.28969109     0.32120356     347.39708      259.09871      88.298375      97.903432      293.696        338.14828     -87795.331     -88823.178      21027.481     -109850.66    
     65000   65000          0.29621448     0.29759414     348.92053      251.45091      97.469622      97.9236        294.64104     -659.78989     -90665.652     -88660.132      21095.142     -109755.27    
     66000   66000          0.29405344     0.31909174     336.39267      246.21055      90.18212       97.861021      293.98908      273.38274     -87987.702     -88818.686      21048.465     -109867.15    
     67000   67000          0.2936659      0.27648901     351.51606      247.6876       103.82846      97.755407      294.74864      113.40663     -88365.842     -88710.557      21102.846     -109813.4     
     68000   68000          0.29670926     0.31570301     340.65987      248.72657      91.933299      97.818382      292.82541     -625.60745     -90721.49      -88819.872      20965.15      -109785.02    
     69000   69000          0.2909359      0.32807841     334.67249      247.92849      86.744001      97.818227      292.49398      860.25918     -86296.627     -88911.499      20941.422     -109852.92    
     70000   70000          0.29590164     0.31038244     351.15999      257.84804      93.311943      97.878429      295.01223      102.76874     -88472.785     -88785.164      21121.719     -109906.88    
     71000   71000          0.29218921     0.27891942     352.71599      250.19626      102.51974      97.863799      293.57899     -596.69079     -90646.445     -88832.724      21019.104     -109851.83    
     72000   72000          0.29138082     0.31855504     345.05208      255.57727      89.474802      97.819236      295.19878      23.144974     -88616.599     -88686.951      21135.074     -109822.03    
     73000   73000          0.29386845     0.2678448      363.55535      256.25714      107.29821      97.796374      296.52082      397.53891     -87447.074     -88655.446      21229.727     -109885.17    
     74000   74000          0.29030134     0.29580192     360.02988      264.02545      96.004437      97.823512      295.64601      275.27968     -87829.987     -88666.737      21167.094     -109833.83    
     75000   75000          0.29594494     0.28991621     351.03792      251.24572      99.792205      97.759326      293.58802     -508.735       -90478.891     -88932.523      21019.75      -109952.27    
     76000   76000          0.29427531     0.29533311     351.73005      254.29192      97.438126      97.788376      293.24183     -403.51621     -90099.055     -88872.514      20994.964     -109867.48    
     77000   77000          0.29322303     0.29085889     346.73362      248.20349      98.530136      97.735728      294.08772     -604.63725     -90661.785     -88823.909      21055.527     -109879.44    
     78000   78000          0.29202815     0.28217217     355.52791      254.32875      101.19916      97.783681      294.49642      27.288457     -88731.372     -88814.319      21084.788     -109899.11    
     79000   79000          0.29304433     0.29325824     355.03443      257.3861       97.648322      97.719603      294.1634      -10.652214     -88826.1       -88793.721      21060.945     -109854.67    
     80000   80000          0.29413721     0.35889915     338.88633      258.80079      80.085542      97.718452      295.24564     -1462.1556     -93278.488     -88834.071      21138.43      -109972.5     
     81000   81000          0.29598887     0.36314812     347.39481      267.84795      79.546854      97.595865      296.33891      837.48578     -86134.587     -88680.237      21216.703     -109896.94    
     82000   82000          0.29630243     0.33557827     341.96371      255.9122       86.05151       97.457913      295.12509      243.87699     -87978.872     -88720.168      21129.798     -109849.97    
     83000   83000          0.30019331     0.27152364     356.11452      248.43302      107.6815       97.397478      293.37364     -558.53187     -90340.493     -88642.76       21004.402     -109647.16    
     84000   84000          0.29541968     0.32556665     347.52603      259.16331      88.362718      97.37995       295.77158      1.7362351     -88725.285     -88730.562      21176.085     -109906.65    
     85000   85000          0.29821868     0.29013345     346.43155      246.34535      100.08619      97.372683      294.1689       219.08131     -88093.927     -88759.853      21061.339     -109821.19    
     86000   86000          0.29695        0.34938114     343.28147      260.57584      82.705628      97.308591      296.26882      12.738141     -88804.26      -88842.979      21211.685     -110054.66    
     87000   87000          0.29923178     0.27024227     358.58696      250.85176      107.7352       97.297838      294.72431     -302.13899     -89809.993     -88891.601      21101.104     -109992.71    
     88000   88000          0.29618681     0.28199774     348.79576      246.59138      102.20438      97.308195      293.74417     -581.54739     -90655.18      -88887.488      21030.93      -109918.42    
     89000   89000          0.29754601     0.27478504     349.03625      243.68094      105.35531      97.296089      293.49499     -569.21227     -90642.877     -88912.681      21013.089     -109925.77    
     90000   90000          0.29613812     0.36554251     335.1733       256.39327      78.780025      97.243301      291.30884      609.45728     -86928.676     -88781.203      20856.57      -109637.77    
     91000   91000          0.29702753     0.31674041     343.93977      252.77165      91.168121      97.218692      294.29252      483.19969     -87339.978     -88808.728      21070.19      -109878.92    
     92000   92000          0.29788703     0.33185579     345.30052      258.05498      87.245534      97.194348      295.24787     -350.47415     -89763.449     -88698.136      21138.589     -109836.72    
     93000   93000          0.30076121     0.29122102     355.12629      254.67962      100.44668      97.260494      296.91925      220.87974     -87877.611     -88549.004      21258.254     -109807.26    
     94000   94000          0.30172568     0.2952357      357.29082      257.90817      99.382649      97.244975      293.28814      449.04722     -87241.981     -88606.92       20998.28      -109605.2     
     95000   95000          0.29970169     0.28811853     363.34056      262.15406      101.1865       97.275745      295.04795     -484.2901      -90146.049     -88673.985      21124.276     -109798.26    
     96000   96000          0.29887784     0.28765438     348.89447      247.84328      101.05119      97.256517      293.49343      543.85129     -87051.106     -88704.215      21012.978     -109717.19    
     97000   97000          0.29958113     0.33372562     333.75138      246.47618      87.275197      97.222309      295.54701      34.230827     -88501.495     -88605.544      21160.006     -109765.55    
     98000   98000          0.29983255     0.35546569     338.03213      256.0588       81.973333      97.183269      294.03051      179.71363     -87982.846     -88529.11       21051.431     -109580.54    
     99000   99000          0.30181395     0.28287917     354.61806      250.94054      103.67752      97.173145      299.21529      43.309359     -88371.921     -88503.565      21422.641     -109926.21    
    100000   100000         0.30210004     0.26675729     358.6319       248.58014      110.05176      97.176782      295.14198     -203.41334     -89046.041     -88427.738      21131.008     -109558.75    
    101000   101000         0.3001335      0.29871803     344.62982      246.9624       97.667417      97.206803      294.24264      424.91151     -87409.11      -88700.686      21066.619     -109767.3     
    102000   102000         0.30292715     0.26209364     364.49016      252.16385      112.32631      97.18512       295.38812     -271.67339     -89466.698     -88640.911      21148.631     -109789.54    
    103000   103000         0.30024283     0.32762848     342.97694      253.86509      89.111849      97.23989       295.24996      197.63489     -87924.204     -88524.942      21138.739     -109663.68    
    104000   104000         0.29986103     0.2323046      371.6466       246.15943      125.48717      97.215858      297.76935     -132.8632      -88935.084     -88531.229      21319.117     -109850.35    
    105000   105000         0.29945534     0.36098437     343.77161      263.18817      80.583446      97.14091       293.83115     -56.236906     -88896.178     -88725.239      21037.157     -109762.4     
    106000   106000         0.30277303     0.27025442     358.85641      250.04571      108.8107       97.124153      291.67949      252.56736     -87989.066     -88756.779      20883.107     -109639.89    
    107000   107000         0.300863       0.30603333     353.33061      257.85848      95.472124      97.112814      292.55217      273.1784      -87840.27      -88670.632      20945.587     -109616.22    
    108000   108000         0.30290186     0.26563766     364.88775      254.16086      110.7269       97.10483       295.73537     -179.88015     -89164.072     -88617.302      21173.493     -109790.8     
    109000   109000         0.30180761     0.32158005     341.62135      250.52635      91.094998      97.06294       292.64488      80.02236      -88561.583     -88804.822      20952.225     -109757.05    
    110000   110000         0.30325063     0.30764264     344.58236      248.91181      95.670545      97.056152      295.32292     -56.744564     -88767.913     -88595.43       21143.962     -109739.39    
    111000   111000         0.3039528      0.30795339     341.66176      245.88081      95.780954      97.041611      295.28106      352.82829     -87574.062     -88646.531      21140.965     -109787.5     
    112000   112000         0.30382676     0.31653667     345.43882      252.25646      93.182361      97.080434      296.7232      -151.90457     -89054.82      -88593.086      21244.217     -109837.3     
    113000   113000         0.30281014     0.2986416      353.23957      254.82362      98.415953      97.061141      295.3955      -269.62687     -89340.926     -88521.359      21149.159     -109670.52    
    114000   114000         0.30294246     0.26521626     356.49926      245.65452      110.84474      97.040962      296.03866      540.17269     -86940.559     -88582.487      21195.206     -109777.69    
    115000   115000         0.3015576      0.31574113     342.35951      249.63912      92.720392      97.081425      293.60337      871.65313     -85992.463     -88641.969      21020.85      -109662.82    
    116000   116000         0.30200353     0.29602835     347.18254      248.11763      99.064911      97.104899      294.25555     -474.67326     -90171.764     -88728.931      21067.543     -109796.47    
    117000   117000         0.30048651     0.37472823     334.10788      256.23998      77.867904      97.106859      293.51333      619.51731     -86845.184     -88728.29       21014.403     -109742.69    
    118000   118000         0.3014703      0.30450624     344.26247      248.1321       96.130371      97.098447      293.34454     -514.72415     -90438.859     -88874.286      21002.318     -109876.6     
    119000   119000         0.30016878     0.3631641      339.2579       258.98121      80.276694      97.12407       293.55702      645.75051     -86833.514     -88796.359      21017.531     -109813.89    
    120000   120000         0.30105483     0.32825222     355.78544      266.69487      89.090574      97.139047      298.80479      269.02576     -87765.764     -88583.504      21393.251     -109976.75    
    121000   121000         0.30157919     0.28152888     355.7219       251.67356      104.04834      97.130751      295.85843     -473.52415     -90124.678     -88685.338      21182.303     -109867.64    
    122000   122000         0.29830609     0.30793986     353.22708      259.15952      94.067551      97.105455      294.65605      412.13342     -87362.855     -88615.59       21096.217     -109711.81    
    123000   123000         0.29858899     0.38714788     334.54733      259.68578      74.861542      97.064822      294.28794     -890.32499     -91335.797     -88629.535      21069.862     -109699.4     
    124000   124000         0.30383036     0.27955746     366.49931      260.97412      105.52519      97.09482       297.45035     -26.30597      -88514.877     -88434.917      21296.278     -109731.19    
    125000   125000         0.30251454     0.31914644     347.1115       255.08098      92.030525      97.090257      296.20658     -499.10492     -90014.185     -88497.089      21207.229     -109704.32    
    126000   126000         0.30291189     0.28395503     356.17885      252.59395      103.5849       97.102338      296.64733     -866.81533     -91373.795     -88738.994      21238.785     -109977.78    
    127000   127000         0.3046186      0.29439463     342.91723      242.44907      100.46815      97.096123      291.90866     -319.12417     -89768.104     -88798.083      20899.515     -109697.6     
    128000   128000         0.30542737     0.30173082     351.29763      252.95777      98.339856      97.149659      293.61357     -132.63333     -89106.052     -88702.896      21021.579     -109724.48    
    129000   129000         0.30324909     0.38923283     346.70048      270.97385      75.726629      97.198281      292.75233     -605.46866     -90540.321     -88699.918      20959.918     -109659.84    
    130000   130000         0.30165728     0.2678834      357.24439      247.77154      109.47285      97.216149      293.4331      -285.21061     -89755.041     -88888.105      21008.658     -109896.76    
    131000   131000         0.30137381     0.26146993     357.32274      245.23967      112.08307      97.24253       293.39859     -435.29738     -90141.307     -88818.162      21006.188     -109824.35    
    132000   132000         0.3019225      0.32616727     333.84214      243.85943      89.982707      97.208437      290.85327     -225.69342     -89633.848     -88947.823      20823.953     -109771.78    
    133000   133000         0.30366144     0.2861515      364.80632      261.71074      103.09558      97.150807      296.25915     -674.61484     -90744.513     -88693.931      21210.993     -109904.92    
    134000   134000         0.30604191     0.30083871     345.82521      246.98295      98.842261      97.161784      291.26104      29.414692     -88681.066     -88770.476      20853.148     -109623.62    
    135000   135000         0.30505488     0.27369517     352.04462      243.71959      108.32503      97.189193      293.71596     -29.067986     -88924.279     -88835.923      21028.91      -109864.83    
    136000   136000         0.30334299     0.33262747     347.29568      258.69607      88.599606      97.152939      294.09864      4.887039      -88811.242     -88826.097      21056.309     -109882.41    
    137000   137000         0.30268419     0.31043013     347.61204      252.88381      94.728232      97.152406      295.20762      402.79517     -87547.889     -88772.239      21135.707     -109907.95    
    138000   138000         0.30244139     0.33379899     347.23675      259.23408      88.002666      97.126921      295.0102      -870.51603     -91321.779     -88675.729      21121.573     -109797.3     
    139000   139000         0.30395149     0.31704946     347.04311      253.93944      93.10367       97.115722      294.59135      121.81928     -88267.89      -88638.176      21091.585     -109729.76    
    140000   140000         0.3034778      0.30995509     350.25112      255.16985      95.081272      97.110642      296.44479     -497.57258     -90266.02      -88753.582      21224.284     -109977.87    
    141000   141000         0.30671046     0.26962665     353.49402      243.0279       110.46612      97.109855      292.78128     -1172.1629     -92306.025     -88743.079      20961.991     -109705.07    
    142000   142000         0.30506368     0.30114494     358.70881      260.33246      98.376349      97.112643      296.21831      459.72811     -87294.873     -88692.278      21208.069     -109900.35    
    143000   143000         0.30526446     0.30855471     346.5491       250.46585      96.083246      97.118866      294.19629      493.03049     -87146.67      -88645.302      21063.3       -109708.6     
    144000   144000         0.30650899     0.32157762     340.04389      247.50192      92.541973      97.091532      293.28355      31.120738     -88487.603     -88582.199      20997.952     -109580.15    
    145000   145000         0.30458816     0.36418429     333.88233      252.63453      81.247795      97.144851      293.33068     -385.74179     -89833.667     -88661.153      21001.326     -109662.48    
    146000   146000         0.30483031     0.33754772     343.48295      255.75839      87.724565      97.140034      296.56393     -785.04494     -91004.467     -88618.218      21232.814     -109851.03    
    147000   147000         0.30664733     0.2697879      353.801        243.38295      110.41805      97.145651      292.51004     -505.25698     -90201.496     -88665.7        20942.571     -109608.27    
    148000   148000         0.30737584     0.29997224     353.62204      254.04307      99.578964      97.180458      295.83584     -8.3206467     -88603.796     -88578.504      21180.685     -109759.19    
    149000   149000         0.30587591     0.24836959     365.85972      246.1668       119.69293      97.190013      295.21168      670.57677     -86752.668     -88790.975      21135.998     -109926.97    
    150000   150000         0.30582563     0.28339515     352.39001      247.52265      104.86737      97.175971      296.07086      183.97172     -88115.566     -88674.773      21197.512     -109872.28    
    151000   151000         0.30548338     0.29676297     352.40812      252.37584      100.03228      97.176728      294.25748      2.2479634     -88597.006     -88603.839      21067.681     -109671.52    
    152000   152000         0.30652256     0.27894122     349.00191      242.24324      106.75867      97.152366      294.56558      603.12366     -86694.626     -88527.901      21089.74      -109617.64    
    153000   153000         0.30570659     0.29680841     350.39157      250.34083      100.05074      97.138575      298.40034     -595.19238     -90271.416     -88462.249      21364.294     -109826.54    
    154000   154000         0.30535818     0.28958073     351.68936      249.25191      102.43745      97.144645      293.8675      -659.63197     -90560.62      -88555.581      21039.76      -109595.34    
    155000   155000         0.30523436     0.31587568     350.12385      256.27753      93.846325      97.118068      296.16506      27.674725     -88511.239     -88595.36       21204.256     -109799.62    
    156000   156000         0.30615584     0.30548989     345.01192      247.69196      97.319961      97.108271      295.44414     -330.79583     -89594.78      -88589.282      21152.641     -109741.92    
    157000   157000         0.30623572     0.31166646     344.53737      249.12234      95.415028      97.107104      294.83496      236.37136     -87915.424     -88633.907      21109.026     -109742.93    
    158000   158000         0.30683455     0.29623695     360.08354      259.48359      100.59995      97.125385      294.30815     -420.05975     -89775.032     -88498.204      21071.309     -109569.51    
    159000   159000         0.3058951      0.28086425     353.98239      248.17961      105.80278      97.145123      294.96903      131.16773     -88193.187     -88591.889      21118.626     -109710.51    
    160000   160000         0.30609457     0.35485183     338.52721      254.75557      83.771643      97.115476      296.49116     -979.16        -91597.942     -88621.654      21227.603     -109849.26    
    161000   161000         0.30580641     0.3054328      346.64251      249.41775      97.224764      97.105985      295.24384     -400.68653     -89823.306     -88605.366      21138.301     -109743.67    
    162000   162000         0.30533583     0.31595709     345.90948      252.08192      93.827554      97.091395      296.69546     -0.86806722    -88606.453     -88603.814      21242.231     -109846.04    
    163000   163000         0.30662571     0.2677486      357.79333      246.60764      111.18569      97.088439      295.59215      245.64675     -87870.288     -88616.964      21163.238     -109780.2     
    164000   164000         0.30610592     0.28347898     353.86135      249.00884      104.85251      97.101951      295.9205      -613.4697      -90473.957     -88609.233      21186.747     -109795.98    
    165000   165000         0.3057212      0.28218456     361.6218       256.40363      105.21818      97.117718      294.40282     -502.54475     -90090.214     -88562.662      21078.087     -109640.75    
    166000   166000         0.30494676     0.27171787     353.56713      244.5634       109.00373      97.126004      294.17852     -49.727059     -88940.116     -88788.964      21062.028     -109850.99    
    167000   167000         0.30314172     0.38736603     335.24751      259.25812      75.989391      97.102137      293.1249      -890.25779     -91532.638     -88826.58       20986.593     -109813.17    
    168000   168000         0.30448764     0.30846132     357.41723      261.60921      95.808015      97.058346      295.78841      470.08908     -87101.386     -88530.284      21177.29      -109707.57    
    169000   169000         0.30390769     0.31870078     349.1864       256.65279      92.533614      97.037805      294.38231     -239.39136     -89397.404     -88669.742      21076.618     -109746.36    
    170000   170000         0.30565691     0.2634641      368.64576      256.05289      112.59287      97.050573      296.94366      522.6937      -87057.27      -88646.068      21260.001     -109906.07    
    171000   171000         0.30582344     0.39188266     332.39548      256.70605      75.689425      96.988554      294.38167      147.34728     -88156.717     -88604.599      21076.573     -109681.17    
    172000   172000         0.30599152     0.32137556     350.91928      258.57057      92.348714      96.99164       296.14477      143.33822     -88051.888     -88487.584      21202.804     -109690.39    
    173000   173000         0.30684735     0.28398727     350.97851      246.16126      104.81724      97.008375      295.67098     -481.98071     -89880.648     -88415.603      21168.882     -109584.49    
    174000   174000         0.30761692     0.28674857     351.20826      247.1534       104.05485      96.995899      297.09816      140.47733     -88079.442     -88506.442      21271.063     -109777.5     
    175000   175000         0.30851251     0.25335603     364.1985       246.06544      118.13306      97.012994      298.45537     -244.30181     -89098.25      -88355.662      21368.234     -109723.9     
    176000   176000         0.30889538     0.28105394     361.41537      254.77047      106.6449       97.032756      298.58493     -325.23216     -89176.426     -88187.839      21377.509     -109565.35    
    177000   177000         0.30908915     0.28761262     354.1174       249.83034      104.28706      97.040852      297.65322     -775.93935     -90599.973     -88241.401      21310.802     -109552.2     
    178000   178000         0.30890414     0.24692064     365.25208      243.78948      121.4626       97.090389      297.5683       341.39478     -87116.268     -88153.983      21304.723     -109458.71    
    179000   179000         0.30709388     0.34134175     342.29931      254.94819      87.351123      97.092738      297.41854     -728.03831     -90527.301     -88314.331      21294.001     -109608.33    
    180000   180000         0.30833577     0.31562074     353.50362      258.66269      94.84093       97.081711      299.71052     -379.7249      -89280.825     -88126.6        21458.098     -109584.7     
    181000   181000         0.30756333     0.34933345     335.7227       250.24969      85.473004      97.081077      295.80772     -702.79308     -90480.055     -88343.822      21178.672     -109522.49    
    182000   182000         0.30943858     0.26667898     357.4181       244.79067      112.62743      97.064074      297.73817      86.345443     -87951.607     -88214.066      21316.885     -109530.95    
    183000   183000         0.30779809     0.29566786     352.30036      251.229        101.07136      97.088168      297.64921      702.74605     -86132.279     -88268.37       21310.516     -109578.89    
    184000   184000         0.30656218     0.32174973     340.88124      248.37171      92.509531      97.092593      296.42189     -357.34527     -89630.287     -88544.088      21222.644     -109766.73    
    185000   185000         0.30479647     0.35563646     334.63716      251.43269      83.204471      97.082961      296.3946       399.19922     -87259.413     -88472.832      21220.691     -109693.52    
    186000   186000         0.30481391     0.32253491     342.72213      250.96936      91.752766      97.087007      296.72196     -379.17814     -89735.466     -88582.903      21244.128     -109827.03    
    187000   187000         0.30440088     0.28780497     359.53475      256.8693       102.66545      97.068141      295.83459      276.89277     -87693.154     -88534.806      21180.596     -109715.4     
    188000   188000         0.30491774     0.30251891     351.3351       253.49734      97.837763      97.068059      294.9492      -41.226665     -88721.632     -88596.318      21117.205     -109713.52    
    189000   189000         0.30411229     0.28761105     353.43918      250.79989      102.63929      97.070044      295.73562     -37.711607     -88660.376     -88545.747      21173.51      -109719.26    
    190000   190000         0.30571462     0.26339873     361.08109      248.39993      112.68117      97.084259      296.35971     -466.14261     -89999.71      -88582.807      21218.192     -109801       
    191000   191000         0.3057148      0.3120322      350.6663       255.55825      95.108051      97.073395      293.77429     -958.77674     -91620.452     -88706.122      21033.087     -109739.21    
    192000   192000         0.30582423     0.30869289     355.0256       258.84856      96.177039      97.079188      296.06362     -98.925057     -88855.13      -88554.434      21196.993     -109751.43    
    193000   193000         0.30481228     0.28376996     352.98336      248.69831      104.28504      97.085859      295.38167     -713.94939     -90755.383     -88585.238      21148.169     -109733.41    
    194000   194000         0.30577002     0.27957212     362.37735      256.2042       106.17314      97.076394      296.79688      487.44355     -87060.137     -88541.787      21249.492     -109791.28    
    195000   195000         0.30543702     0.26451984     361.60369      249.53034      112.07335      97.059698      296.02372      8.7325832     -88662.735     -88689.279      21194.137     -109883.42    
    196000   196000         0.3037502      0.27930705     350.01165      244.44996      105.56169      97.067013      294.35563     -507.74347     -90301.349     -88757.995      21074.708     -109832.7     
    197000   197000         0.30447943     0.36749437     343.01052      262.60955      80.400972      97.040725      295.33097      336.33378     -87690.145     -88712.476      21144.539     -109857.02    
    198000   198000         0.3059545      0.31986561     343.75337      250.92027      92.833101      97.054029      295.0695      -132.03941     -89039.619     -88638.268      21125.819     -109764.09    
    199000   199000         0.30611915     0.2784321      348.93937      242.20463      106.73474      97.081082      294.21765     -813.79491     -91163.007     -88689.368      21064.829     -109754.2     
    200000   200000         0.30633101     0.30973105     349.58164      253.58061      96.001037      97.066575      294.5906       91.404173     -88353.624     -88631.459      21091.531     -109722.99    
    201000   201000         0.30572659     0.33164026     343.17611      253.70124      89.474878      97.058851      294.12437     -834.53079     -91257.651     -88720.983      21058.151     -109779.13    
    202000   202000         0.30589701     0.35819536     341.39028      258.51562      82.87466       97.043506      297.2159       292.19884     -87747.092     -88635.27       21279.492     -109914.76    
    203000   203000         0.30731911     0.27310393     360.91028      251.72614      109.18414      97.028196      295.0194       167.27925     -88075.513     -88583.981      21122.232     -109706.21    
    204000   204000         0.30588833     0.33571365     339.94706      251.52311      88.423943      97.045625      295.5578      -52.646642     -88917.519     -88757.492      21160.779     -109918.27    
    205000   205000         0.30740263     0.325142       347.61716      255.88808      91.72908       97.022516      296.98931      85.54258      -88301.301     -88561.319      21263.269     -109824.59    
    206000   206000         0.30666877     0.2761464      353.94495      246.21018      107.73476      97.012052      294.84146      231.71907     -87900.703     -88605.044      21109.491     -109714.54    
    207000   207000         0.30695822     0.32826316     343.19187      252.48194      90.709934      97.005806      295.96865      164.91103     -88193.605     -88694.874      21190.194     -109885.07    
    208000   208000         0.30787913     0.2839834      346.5974       241.43238      105.16502      97.002742      294.63912      1035.6981     -85542.593     -88690.736      21095.005     -109785.74    
    209000   209000         0.30607963     0.31643482     344.96498      251.13288      93.832095      97.006593      294.69931     -133.1252      -88940.389     -88535.737      21099.314     -109635.05    
    210000   210000         0.30672915     0.35181858     336.4361       251.86097      84.575124      97.007732      295.91223     -177.70945     -89277.839     -88737.667      21186.155     -109923.82    
    211000   211000         0.30687012     0.29036243     352.85793      250.33106      102.52686      97.011559      295.41604      555.89646     -86979.561     -88669.283      21150.63      -109819.91    
    212000   212000         0.30692994     0.31396665     338.96395      244.14198      94.821967      96.995867      292.31581     -590.74811     -90632.399     -88836.741      20928.665     -109765.41    
    213000   213000         0.30716515     0.28065573     356.4382       250.24495      106.19325      97.028407      295.62257      248.78221     -87968.097     -88724.303      21165.416     -109889.72    
    214000   214000         0.30621426     0.35198637     346.76051      262.34582      84.414689      97.032777      293.48815     -562.41116     -90420.598     -88711.074      21012.6       -109723.67    
    215000   215000         0.3063542      0.30094707     348.188        249.41363      98.774372      97.031012      293.55119      166.19015     -88327.646     -88832.804      21017.114     -109849.92    
    216000   216000         0.30726081     0.32053953     341.83015      248.81742      93.012729      97.032408      293.74651      245.88839     -88110.293     -88857.703      21031.097     -109888.8     
    217000   217000         0.30734215     0.34145858     336.8765       249.55636      87.320143      97.01309       293.31741     -39.324345     -88860.617     -88741.085      21000.376     -109741.46    
    218000   218000         0.30753136     0.28216369     353.87954      248.12291      105.75663      97.032972      294.54832     -56.158659     -88970.525     -88799.823      21088.504     -109888.33    
    219000   219000         0.30786893     0.31216784     350.1677       254.48291      95.684798      97.020889      296.89559      198.34378     -88155.397     -88758.289      21256.56      -110014.85    
    220000   220000         0.30611721     0.32346424     342.97594      251.16503      91.810908      97.013644      292.35304      372.13743     -87695.839     -88827.001      20931.33      -109758.33    
    221000   221000         0.30766409     0.34894        336.28545      250.75843      85.527021      97.001243      293.41588      205.11906     -87987.55      -88611.036      21007.426     -109618.46    
    222000   222000         0.30757004     0.29847763     359.2303       259.26961      99.960692      97.005647      295.1415       17.183408     -88628.206     -88680.437      21130.974     -109811.41    
    223000   223000         0.30807916     0.26536227     357.11244      244.46651      112.64592      97.026941      294.57036     -367.99255     -89767.246     -88648.683      21090.082     -109738.77    
    224000   224000         0.30698428     0.34774537     344.37982      258.72587      85.653948      97.026998      294.08178     -35.037438     -88775.821     -88669.32       21055.102     -109724.42    
    225000   225000         0.30644652     0.30480902     338.21805      240.66311      97.554937      97.033654      294.52095      46.516244     -88703.293     -88844.685      21086.544     -109931.23    
    226000   226000         0.30620241     0.34328926     335.20139      248.6558       86.545592      97.027887      293.39163     -197.29512     -89336.744     -88737.039      21005.689     -109742.73    
    227000   227000         0.30601546     0.32664741     347.58494      256.70559      90.879346      97.006546      296.17996     -234.09308     -89383.655     -88672.097      21205.323     -109877.42    
    228000   228000         0.30599827     0.3712783      342.806        262.85211      79.953891      97.010826      297.06472     -573.22391     -90275.183     -88532.792      21268.668     -109801.46    
    229000   229000         0.30602533     0.29833405     351.73517      252.2332       99.501965      97.001199      295.17041     -301.46568     -89567.172     -88650.827      21133.044     -109783.87    
    230000   230000         0.30759278     0.25867804     360.16003      244.79207      115.36797      97.021651      295.81529      470.2052      -87060.206     -88489.458      21179.214     -109668.67    
    231000   231000         0.30750678     0.29270302     361.88105      259.97149      101.90956      97.003511      295.55447     -200.31048     -89117.457     -88508.587      21160.54      -109669.13    
    232000   232000         0.30661434     0.28506617     352.46001      248.11555      104.34445      97.011356      295.37946     -455.55507     -90036.263     -88651.543      21148.01      -109799.55    
    233000   233000         0.30794327     0.28550507     358.76627      254.11235      104.65392      97.02834       295.00079     -189.96307     -89133.639     -88556.221      21120.899     -109677.12    
    234000   234000         0.3065094      0.29181163     351.90607      249.99192      101.91415      97.027147      294.6199      -236.42004     -89405.911     -88687.281      21093.629     -109780.91    
    235000   235000         0.3060396      0.36313654     335.26206      253.50483      81.757234      97.010446      295.4449       1178.9093     -85280.241     -88863.694      21152.696     -110016.39    
    236000   236000         0.30674106     0.30396669     347.75208      249.88329      97.868784      96.983594      294.72776      195.5719      -88023.614     -88618.081      21101.352     -109719.43    
    237000   237000         0.30696121     0.26097065     367.41005      253.32758      114.08248      96.990034      295.1231      -298.46839     -89654.826     -88747.591      21129.656     -109877.25    
    238000   238000         0.30632868     0.26853298     354.59633      243.94111      110.65521      97.002259      295.73202     -861.53437     -91323.792     -88705.043      21173.252     -109878.3     
    239000   239000         0.30727708     0.28092074     352.39128      246.29844      106.09283      96.992842      293.21169     -242.26518     -89337.927     -88601.53       20992.807     -109594.34    
    240000   240000         0.30680628     0.330975       339.89214      249.96795      89.924195      97.007991      294.79642      225.46489     -87975.523     -88660.853      21106.267     -109767.12    
    241000   241000         0.30716573     0.35184223     345.47767      260.78525      84.692416      97.01072       295.71628     -139.56775     -89119.405     -88695.171      21172.125     -109867.3     
    242000   242000         0.30630822     0.32014045     335.61579      242.80347      92.812321      97.003529      294.14629     -475.43924     -90246.409     -88801.248      21059.72      -109860.97    
    243000   243000         0.30728215     0.28179846     355.32021      249.5359       105.78431      97.011344      293.65251     -460.41605     -90134.621     -88735.124      21024.368     -109759.49    
    244000   244000         0.30619608     0.3237404      349.33743      257.59338      91.744053      97.000773      292.9085       11.430718     -88838.798     -88873.544      20971.1       -109844.64    
    245000   245000         0.30648319     0.30674034     342.7262       245.8178       96.908404      96.989713      293.24279      116.80608     -88527.169     -88882.216      20995.033     -109877.25    
    246000   246000         0.30748163     0.27697289     357.42242      249.75609      107.66633      96.983532      294.3554      -483.96519     -90234.716     -88763.639      21074.692     -109838.33    
    247000   247000         0.30726733     0.25476677     365.13664      248.16882      116.96782      96.982373      291.96763      67.820969     -88638.587     -88844.738      20903.737     -109748.48    
    248000   248000         0.30732835     0.2985452      348.40223      248.55325      99.848984      96.995396      291.15485     -37.572301     -88928.514     -88814.308      20845.545     -109659.85    
    249000   249000         0.30734795     0.26373226     346.5966       233.55746      113.03914      96.997779      291.77154     -366.82845     -90116.643     -89001.619      20889.697     -109891.32    
    250000   250000         0.30703257     0.28522467     345.76704      241.35302      104.41401      96.997699      292.27288     -790.61481     -91424.671     -89021.492      20925.591     -109947.08    
    251000   251000         0.3073444      0.32593571     341.72405      250.27809      91.445957      96.977538      291.5405      -435.72005     -90308.972     -88984.542      20873.156     -109857.7     
    252000   252000         0.30809715     0.27075448     360.2587       249.88968      110.36902      96.991837      293.0895       334.31987     -87873.333     -88889.543      20984.058     -109873.6     
    253000   253000         0.30713918     0.35388488     343.51527      259.33187      84.183399      96.995869      291.81137      50.615606     -88843.842     -88997.695      20892.549     -109890.24    
    254000   254000         0.30767302     0.27076814     344.03816      233.84984      110.18832      96.971415      291.85498      72.122293     -88662.632     -88881.858      20895.671     -109777.53    
    255000   255000         0.3074869      0.30626613     350.14789      252.79506      97.352828      96.966324      294.09315     -26.029778     -88976.606     -88897.485      21055.916     -109953.4     
    256000   256000         0.30853086     0.30582327     348.87215      251.05084      97.821308      96.962854      294.40459      263.0283      -88036.832     -88836.342      21078.214     -109914.56    
    257000   257000         0.3084776      0.35198788     334.6733       249.70266      84.970637      96.95561       292.0207      -46.259665     -89158.126     -89017.514      20907.536     -109925.05    
    258000   258000         0.30785851     0.3189581      343.76084      250.18709      93.573749      96.947475      293.34276      218.11839     -88258.885     -88921.885      21002.191     -109924.08    
    259000   259000         0.30803016     0.32733812     348.49959      257.27669      91.222893      96.940929      294.91314      337.48341     -87965.094     -88990.92       21114.624     -110105.54    
    260000   260000         0.30755912     0.33239699     341.96625      252.28063      89.685621      96.928454      292.13392     -805.29303     -91272.17      -88824.374      20915.642     -109740.02    
    261000   261000         0.30832063     0.28777395     361.80921      257.98757      103.82164      96.902899      295.78414     -576.6425      -90510.997     -88758.215      21176.984     -109935.2     
    262000   262000         0.30886165     0.3193482      346.59838      252.88454      93.713839      96.895636      294.74798      318.32601     -87790.217     -88757.812      21102.799     -109860.61    
    263000   263000         0.30802585     0.31324896     345.25379      249.97607      95.277716      96.893314      296.61121     -491.76132     -90137.91      -88643.136      21236.199     -109879.34    
    264000   264000         0.30849768     0.30570523     352.56201      254.80174      97.760264      96.875358      296.03525     -1009.0501     -91638.62      -88571.477      21194.962     -109766.44    
    265000   265000         0.30811795     0.31777256     354.38494      260.45049      93.934451      96.877807      294.58401     -436.66383     -89815.296     -88487.998      21091.06      -109579.06    
    266000   266000         0.30859644     0.26397486     362.82227      249.55365      113.26863      96.890521      294.7338       58.649346     -88609.506     -88787.778      21101.784     -109889.56    
    267000   267000         0.30867473     0.29485893     342.40657      240.95342      101.45315      96.912265      291.10067     -1106.8478     -92202.119     -88837.707      20841.666     -109679.37    
    268000   268000         0.30871135     0.28357305     350.37427      244.86677      105.5075       96.916049      294.61524      72.968187     -88750.72      -88972.517      21093.295     -110065.81    
    269000   269000         0.30908071     0.30461508     345.81562      247.48619      98.329428      96.908755      294.84734      85.905138     -88640.368     -88901.489      21109.913     -110011.4     
    270000   270000         0.30849852     0.28033085     349.02138      242.38115      106.64023      96.903368      292.75768     -51.962861     -88914.624     -88756.676      20960.302     -109716.98    
    271000   271000         0.3085364      0.34470874     343.30408      256.569        86.735076      96.903763      294.39892     -383.39637     -89916.829     -88751.445      21077.808     -109829.25    
    272000   272000         0.30980978     0.27741866     345.47742      237.2481       108.22932      96.913769      292.71698     -439.24668     -90191.197     -88856.048      20957.387     -109813.44    
    273000   273000         0.3093362      0.26734342     366.13381      253.98276      112.15105      96.926405      295.51083      327.35383     -87572.519     -88567.554      21157.416     -109724.97    
    274000   274000         0.30892048     0.349202       347.19216      261.44355      85.748613      96.929756      296.10558     -396.41211     -89755.245     -88550.297      21199.998     -109750.3     
    275000   275000         0.30822699     0.34145723     340.58617      253.08273      87.503436      96.937265      295.11297     -67.39285      -88751.318     -88546.469      21128.931     -109675.4     
    276000   276000         0.30933142     0.33912972     345.04471      256.6279       88.41681       96.934119      295.60033      372.93915     -87392.985     -88526.584      21163.824     -109690.41    
    277000   277000         0.30856646     0.29134874     355.34875      252.67684      102.6719       96.942905      294.8628       279.89674     -87703.67      -88554.454      21111.019     -109665.47    
    278000   278000         0.30916919     0.32401314     340.35237      247.85974      92.492628      96.93342       296.92472     -492.57759     -90100.355     -88603.1        21258.645     -109861.75    
    279000   279000         0.30922759     0.28264084     363.49091      257.44702      106.04389      96.926459      298.1012       754.0897      -86141.809     -88433.965      21342.877     -109776.84    
    280000   280000         0.30970309     0.25486426     362.97522      245.1827       117.79252      96.935109      297.9508      -294.31966     -89340.392     -88445.768      21332.108     -109777.88    
    281000   281000         0.30916715     0.38260923     327.27901      248.93985      78.339158      96.948477      294.2867      -527.59579     -90181.218     -88577.52       21069.773     -109647.29    
    282000   282000         0.30933484     0.3268726      346.76936      255.02396      91.745394      96.946905      296.29478      50.303752     -88370.823     -88523.728      21213.544     -109737.27    
    283000   283000         0.30942475     0.26036486     365.16261      249.92813      115.23448      96.96383       298.49831      54.976756     -88232.507     -88399.616      21371.308     -109770.92    
    284000   284000         0.30951332     0.29690054     352.10947      251.02006      101.08941      96.969978      296.32384      307.60875     -87580.289     -88515.307      21215.624     -109730.93    
    285000   285000         0.30919239     0.29578187     346.35826      245.00779      101.35047      96.954623      295.57774     -38.230301     -88658.831     -88542.625      21162.207     -109704.83    
    286000   286000         0.30940841     0.25921374     364.61214      248.88226      115.72988      96.955272      294.32284     -447.9096      -89935.581     -88574.1        21072.361     -109646.46    
    287000   287000         0.30962699     0.32735556     351.82226      260.12004      91.702217      96.952888      294.76859     -841.03278     -91084.339     -88527.908      21104.274     -109632.18    
    288000   288000         0.30933883     0.30414416     352.67747      254.05497      98.622501      96.966349      297.35597     -527.68651     -90319.516     -88715.543      21289.521     -110005.06    
    289000   289000         0.31027587     0.31341302     348.89134      252.88801      96.003332      96.974007      296.19207      240.87729     -87871.195     -88603.374      21206.19      -109809.56    
    290000   290000         0.31048793     0.31519689     350.99146      255.45797      95.533495      96.982386      295.98706     -130.48354     -89059.384     -88662.761      21191.512     -109854.27    
    291000   291000         0.30962588     0.31825095     349.58777      255.23549      94.352283      96.980599      296.88391     -594.96404     -90452.719     -88644.246      21255.723     -109899.97    
    292000   292000         0.3098388      0.35243345     341.57477      256.32562      85.249152      96.968658      294.36704     -424.40446     -90066.025     -88775.991      21075.525     -109851.52    
    293000   293000         0.3103681      0.3798466      330.02866      250.78559      79.243071      96.982298      292.7044      -20.358354     -88860.085     -88798.203      20956.487     -109754.69    
    294000   294000         0.31010211     0.32476952     338.78305      246.16511      92.617931      96.998632      293.14041     -29.167071     -88870.219     -88781.562      20987.703     -109769.27    
    295000   295000         0.3096159      0.30313084     341.86716      242.79566      99.071502      96.9964        294.73404      406.7136      -87519.673     -88755.933      21101.801     -109857.73    
    296000   296000         0.31016023     0.30542763     348.49181      250.00534      98.486473      96.983711      293.86823     -550.18084     -90269.643     -88597.295      21039.812     -109637.11    
    297000   297000         0.30982262     0.29801809     348.60334      247.76374      100.83959      96.997511      294.28154      296.82839     -87761.568     -88663.818      21069.404     -109733.22    
    298000   298000         0.31032723     0.28353916     352.63975      246.48277      106.15698      96.993295      294.8169      -226.16093     -89468.599     -88781.152      21107.733     -109888.89    
    299000   299000         0.31040262     0.29862696     346.4654       245.65448      100.81092      96.986479      292.60968     -346.93104     -89786.524     -88731.981      20949.705     -109681.69    
    300000   300000         0.31091852     0.29043482     343.40649      239.59458      103.81191      96.972649      295.92531     -162.13362     -88953.509     -88460.682      21187.091     -109647.77    
    301000   301000         0.31028539     0.30526256     345.25785      246.67538      98.582469      96.986639      297.49448     -92.399087     -88766.607     -88485.748      21299.438     -109785.19    
    302000   302000         0.31046517     0.3111512      346.59369      249.80944      96.78425       96.998112      296.93132     -584.32098     -90165.142     -88389.02       21259.117     -109648.14    
    303000   303000         0.31058279     0.29325116     344.19342      241.44681      102.74661      97.012982      297.84046      69.477006     -88077.265     -88288.45       21324.208     -109612.66    
    304000   304000         0.30995543     0.29425692     351.63845      249.46803      102.17041      96.995722      297.97727     -192.96922     -88947.003     -88360.448      21334.003     -109694.45    
    305000   305000         0.31004112     0.34479674     336.17816      248.95324      87.224921      97.00284       296.946        595.54078     -86610.108     -88420.334      21260.169     -109680.5     
    306000   306000         0.31080476     0.26391028     357.06436      242.80761      114.25676      97.017604      296.34881     -746.79625     -90448.151     -88178.163      21217.412     -109395.58    
    307000   307000         0.3096613      0.33839927     343.06529      254.29004      88.775252      97.013998      298.26414     -248.38554     -88977.198     -88222.197      21354.543     -109576.74    
    308000   308000         0.30972709     0.3051026      345.72336      247.25774      98.465622      96.995447      295.25083      577.64544     -86648.743     -88404.574      21138.801     -109543.38    
    309000   309000         0.30922677     0.32654229     346.14054      254.30011      91.840428      96.983142      296.51075     -323.35568     -89439.747     -88456.864      21229.007     -109685.87    
    310000   310000         0.30942091     0.3321769      346.95809      256.62954      90.328552      96.97166       298.38663     -537.31896     -90019.27      -88386.018      21363.312     -109749.33    
    311000   311000         0.31019271     0.29439227     343.10906      240.94425      102.16481      96.96079       298.21136      68.048674     -88115.287     -88322.13       21350.764     -109672.89    
    312000   312000         0.31073252     0.2791164      352.49911      244.56771      107.9314       96.949702      294.66609      53.255533     -88309.968     -88471.846      21096.936     -109568.78    
    313000   313000         0.31069319     0.30143364     356.9933       257.06832      99.924981      96.946929      295.35511     -414.97326     -89746.421     -88485.054      21146.267     -109631.32    
    314000   314000         0.31068178     0.28940856     353.85679      249.77059      104.0862       96.959139      297.61074      36.984557     -88296.847     -88409.266      21307.762     -109717.03    
    315000   315000         0.31070463     0.32549361     343.86872      251.30693      92.561791      96.967565      297.567       -690.06234     -90479.054     -88381.518      21304.629     -109686.15    
    316000   316000         0.31129203     0.29554215     355.60264      253.45525      102.14739      96.979226      298.23814      73.159024     -88221.642     -88444.019      21352.681     -109796.7     
    317000   317000         0.3112355      0.28645064     351.18681      245.8122       105.3746       96.983223      297.854       -1027.2719     -91430.186     -88307.655      21325.178     -109632.83    
    318000   318000         0.31114978     0.31059147     349.56589      252.40483      97.161062      96.98672       296.85733     -749.67096     -90660.994     -88382.269      21253.82      -109636.09    
    319000   319000         0.31122638     0.29079221     351.14419      247.3379       103.8063       96.990693      294.84968      739.34308     -86251.968     -88499.3        21110.08      -109609.38    
    320000   320000         0.31174461     0.28434845     354.95425      248.6071       106.34715      97.001348      297.86497     -21.600067     -88328.534     -88262.878      21325.963     -109588.84    
    321000   321000         0.31228956     0.33293966     340.53066      249.53352      90.997141      97.014312      296.90311      290.55417     -87544.933     -88428.111      21257.098     -109685.21    
[...]
    932000   932000         0.30834595     0.25461707     361.04674      243.68306      117.36368      96.913209      301.09104     -81.272236     -88219.9       -87972.862      21556.937     -109529.8     
    933000   933000         0.3082214      0.2958571      348.06606      247.10032      100.96574      96.915499      300.28946      312.79881     -87038.031     -87988.825      21499.547     -109488.37    
    934000   934000         0.30849856     0.22529267     377.6746       244.9684       132.7062       96.913692      300.48488     -39.01006      -88165.436     -88046.859      21513.538     -109560.4     
    935000   935000         0.30842318     0.29116389     352.77301      250.11451      102.6585       96.913758      298.43853     -131.93706     -88558.147     -88157.106      21367.028     -109524.13    
    936000   936000         0.30818861     0.33644532     341.52573      252.74855      88.777178      96.916839      298.31417      30.935241     -88009.981     -88104.012      21358.124     -109462.14    
    937000   937000         0.3082267      0.32155213     344.53127      251.62984      92.901434      96.917803      299.06679      487.32779     -86514.096     -87995.394      21412.009     -109407.4     
    938000   938000         0.30800878     0.31109496     346.55422      250.59481      95.959405      96.920895      297.48223      273.47074     -87414.509     -88245.76       21298.561     -109544.32    
    939000   939000         0.30832306     0.28115072     351.88484      245.60101      106.28384      96.917104      298.40875      741.35368     -85849.644     -88103.088      21364.896     -109467.98    
    940000   940000         0.30822794     0.34175351     336.21709      248.8024       87.414687      96.922673      300.1699      -304.69707     -89050.741     -88124.573      21490.987     -109615.56    
    941000   941000         0.30836598     0.26523085     350.58531      237.90336      112.68195      96.919677      299.6278      -748.36463     -90309.116     -88034.361      21452.175     -109486.54    
    942000   942000         0.30822752     0.29004208     358.56108      255.56947      102.99161      96.915102      300.27602     -155.86271     -88411.341     -87937.575      21498.585     -109436.16    
    943000   943000         0.30812827     0.29501713     352.51437      251.29206      101.22231      96.915206      299.2943      -347.26218     -89140.069     -88084.519      21428.297     -109512.82    
    944000   944000         0.30810351     0.30694283     350.84227      253.56869      97.273572      96.907126      297.20371     -514.94139     -89603.529     -88038.296      21278.619     -109316.91    
    945000   945000         0.3081039      0.33671296     339.82449      251.15215      88.672342      96.906034      299.23112     -474.34695     -89648.597     -88206.756      21423.774     -109630.53    
    946000   946000         0.30783696     0.36619513     342.82094      261.36172      81.459216      96.901842      297.70528     -661.58457     -90104.536     -88093.561      21314.53      -109408.09    
    947000   947000         0.30785424     0.30436255     342.29399      244.27714      98.016857      96.905145      300.02894     -137.7825      -88598.943     -88180.135      21480.895     -109661.03    
    948000   948000         0.30787859     0.28989479     351.94647      249.02888      102.91758      96.905962      297.83706     -19.602125     -88088.531     -88028.947      21323.965     -109352.91    
    949000   949000         0.30794011     0.24781203     359.00622      238.59269      120.41352      96.901698      299.49202      610.26101     -86219.807     -88074.777      21442.454     -109517.23    
    950000   950000         0.30798834     0.2519848      364.88324      246.44018      118.44305      96.905774      300.60675      255.25885     -87273.854     -88049.748      21522.264     -109572.01    
    951000   951000         0.30793047     0.28025095     350.2913       243.80779      106.4835       96.911821      298.2358      -1.4962909     -88142.213     -88137.664      21352.513     -109490.18    
    952000   952000         0.30763252     0.35146446     341.71876      256.89941      84.819348      96.904535      298.35579      420.08474     -87011.183     -88288.087      21361.104     -109649.19    
    953000   953000         0.30797418     0.30810246     352.64003      255.78237      96.857663      96.898006      299.11007     -34.805915     -88248.43      -88142.633      21415.107     -109557.74    
    954000   954000         0.30806495     0.29093433     350.08088      247.47165      102.60924      96.903427      297.04323      372.52423     -86989.944     -88122.282      21267.13      -109389.41    
    955000   955000         0.30798279     0.2859185      358.98347      254.59843      104.38504      96.906757      299.25944      95.000276     -87843.842     -88132.608      21425.801     -109558.41    
    956000   956000         0.30776828     0.34233435     342.61513      255.49118      87.123943      96.909005      295.64224     -272.22971     -89093.44      -88265.961      21166.825     -109432.79    
    957000   957000         0.30793392     0.28567537     360.08798      255.62679      104.46119      96.910371      298.85572      50.927967     -88134.48      -88289.282      21396.897     -109686.18    
    958000   958000         0.30790209     0.24842844     366.68032      246.57313      120.10719      96.907567      299.26076     -935.61752     -91117.863     -88273.928      21425.896     -109699.82    
    959000   959000         0.30769624     0.3453419      338.27151      251.92717      86.34434       96.908297      300.55951     -470.36836     -89679.03      -88249.283      21518.882     -109768.16    
    960000   960000         0.30777977     0.36602561     330.63124      249.14319      81.488053      96.909277      299.64898      71.750285     -88012.658     -88230.752      21453.692     -109684.44    
    961000   961000         0.30816852     0.28579167     351.33998      246.8447       104.49527      96.907622      299.61307      52.40896      -87774.406     -87933.71       21451.12      -109384.83    
    962000   962000         0.30799358     0.26620837     352.80407      240.68312      112.12096      96.909612      297.79572     -524.4562      -89835.382     -88241.227      21321.005     -109562.23    
    963000   963000         0.30781506     0.33327072     344.61137      255.10208      89.509292      96.911522      298.09112      502.12969     -86694.19      -88220.481      21342.155     -109562.64    
    964000   964000         0.30768217     0.30920728     348.16769      251.73073      96.436959      96.914977      299.30991     -658.30043     -90335.849     -88334.857      21429.415     -109764.27    
    965000   965000         0.30774306     0.3135897      343.60884      248.50312      95.105721      96.912584      299.22321      1176.3348     -84480.868     -88056.495      21423.208     -109479.7     
    966000   966000         0.3076842      0.30917743     345.51069      249.06524      96.445451      96.913513      299.33786     -175.92223     -88738.685     -88203.946      21431.416     -109635.36    
    967000   967000         0.30759617     0.3467649      339.15041      253.18084      85.969571      96.916778      296.63095     -278.61691     -89088.208     -88241.315      21237.612     -109478.93    
    968000   968000         0.30758        0.2928036      349.70515      247.89515      101.81         96.918964      295.29899      119.69749     -87957.345     -88321.182      21142.249     -109463.43    
    969000   969000         0.30739028     0.29066308     356.62684      254.12925      102.49759      96.919997      297.15032     -92.441591     -88607.744     -88326.756      21274.797     -109601.55    
    970000   970000         0.30737093     0.31744095     339.95575      246.11323      93.842519      96.91697       297.11721     -1222.3633     -92169.843     -88454.306      21272.427     -109726.73    
    971000   971000         0.30733065     0.32013607     352.57444      259.53786      93.036582      96.913097      296.45786     -382.17381     -89618.996     -88457.328      21225.22      -109682.55    
    972000   972000         0.30721263     0.30273596     347.02904      248.68347      98.345569      96.912489      294.9152      -560.82219     -90217.059     -88512.365      21114.771     -109627.14    
    973000   973000         0.30706894     0.35708268     339.51291      256.1813       83.331609      96.904214      299.66508     -642.13317     -90451.936     -88500.087      21454.844     -109954.93    
    974000   974000         0.30754338     0.34192463     338.13245      250.97511      87.157344      96.900941      297.58056     -468.40968     -89733.745     -88309.951      21305.601     -109615.55    
    975000   975000         0.30756131     0.30298584     351.34919      252.9832       98.36599       96.902635      300.52265      2.3117382     -88226.06      -88233.087      21516.243     -109749.33    
    976000   976000         0.30759111     0.33336166     355.11184      265.70311      89.408737      96.899564      297.77043     -552.70794     -89975.579     -88295.549      21319.195     -109614.74    
    977000   977000         0.30731469     0.322095       344.95757      252.5058       92.45177       96.898241      295.36648     -350.68176     -89436.554     -88370.609      21147.081     -109517.69    
    978000   978000         0.30744015     0.29711317     350.16569      249.89574      100.26995      96.901859      298.22529      148.84865     -87710.346     -88162.792      21351.761     -109514.55    
    979000   979000         0.30754653     0.25493327     357.43083      240.53204      116.89879      96.900427      296.89071     -7.2054415     -88281.263     -88259.361      21256.21      -109515.57    
    980000   980000         0.30740894     0.28877011     355.44395      252.28192      103.16203      96.907109      298.62131      664.39758     -86204.301     -88223.826      21380.114     -109603.94    
    981000   981000         0.30752477     0.2721785      355.35029      245.85857      109.49173      96.906973      298.1833      -376.31925     -89299.281     -88155.408      21348.754     -109504.16    
    982000   982000         0.30746893     0.29621827     351.88287      251.29022      100.59265      96.911837      297.34979      265.12268     -87481.339     -88287.215      21289.078     -109576.29    
    983000   983000         0.3072425      0.27137383     353.5168       243.79433      109.72247      96.913047      295.18353      225.41455     -87615.603     -88300.781      21133.983     -109434.76    
    984000   984000         0.30749326     0.32335152     348.81789      256.66253      92.155364      96.908066      299.20687      105.63341     -87845.79      -88166.877      21422.038     -109588.91    
    985000   985000         0.30765202     0.28080945     344.91119      238.73879      106.1724       96.908886      297.55877      1047.4551     -84950.289     -88134.169      21304.04      -109438.21    
    986000   986000         0.30731853     0.36336852     339.40375      257.44046      81.96329       96.912083      298.85498     -146.6081      -88687.479     -88241.844      21396.844     -109638.69    
    987000   987000         0.30746444     0.42037052     331.62874      260.74803      70.88071       96.909293      296.08087     -608.34121     -90009.36      -88160.225      21198.228     -109358.45    
    988000   988000         0.30756167     0.35445187     341.17444      257.08604      84.088393      96.908333      301.95017     -74.360088     -88130.53      -87904.503      21618.447     -109522.95    
    989000   989000         0.3075755      0.31984225     351.11558      257.92207      93.193506      96.910257      298.56738      378.17776     -86931.556     -88081.078      21376.253     -109457.33    
    990000   990000         0.30757272     0.28495212     356.74244      252.14108      104.60136      96.908395      298.36561      88.378222     -87844.579     -88113.217      21361.807     -109475.02    
    991000   991000         0.30764452     0.27981436     351.48864      244.93842      106.55022      96.91147       298.31858     -395.46121     -89402.907     -88200.85       21358.44      -109559.29    
    992000   992000         0.30768744     0.2495343      363.36838      243.86303      119.50535      96.918754      298.87688     -189.10264     -88715.874     -88141.071      21398.412     -109539.48    
    993000   993000         0.30763498     0.30118653     356.99364      257.99411      98.999528      96.92436       298.95107      341.46266     -87055.187     -88093.109      21403.724     -109496.83    
    994000   994000         0.30742855     0.29912498     355.74903      256.1304       99.618631      96.927954      298.3591      -870.44733     -90812.364     -88166.523      21361.341     -109527.86    
    995000   995000         0.30741042     0.28259203     357.27743      251.83288      105.44454      96.931612      298.99744     -658.45937     -90027.303     -88025.828      21407.044     -109432.87    
    996000   996000         0.30762705     0.27605966     361.47836      253.45705      108.02131      96.93662       301.66795     -722.66267     -90206.072     -88009.443      21598.241     -109607.68    
    997000   997000         0.30741635     0.27237013     364.94459      255.53317      109.41142      96.938246      301.43562      561.92652     -86328.735     -88036.786      21581.608     -109618.39    
    998000   998000         0.30731091     0.31099394     346.77777      250.98687      95.790905      96.93893       299.13477      552.43469     -86526.698     -88205.898      21416.876     -109622.77    
    999000   999000         0.30723264     0.2685764      357.0437       246.14915      110.89455      96.941718      298.82108     -65.663397     -88377.374     -88177.781      21394.417     -109572.2     
   1000000   1000000        0.30705884     0.37707861     338.53418      259.59358      78.940607      96.941728      298.06716     -437.64993     -89460.47      -88130.174      21340.439     -109470.61    
   1001000   1001000        0.30748478     0.24801334     372.26385      252.07805      120.1858       96.940347      300.76452     -590.61113     -89788.862     -87993.621      21533.559     -109527.18    
   1002000   1002000        0.3072357      0.29150878     352.23717      250.06593      102.17124      96.941253      298.24614     -334.38982     -89047.395     -88030.973      21353.254     -109384.23    
   1003000   1003000        0.30738148     0.3707314      347.125        266.75058      80.374421      96.939223      299.25054      447.37713     -86607.495     -87967.358      21425.164     -109392.52    
   1004000   1004000        0.30723183     0.30341501     346.10672      247.94627      98.160451      96.940977      298.16576      671.63153     -86059.061     -88100.575      21347.499     -109448.07    
   1005000   1005000        0.30735841     0.33669085     337.49908      249.00722      88.491863      96.936997      299.20005      338.74516     -87079.094     -88108.755      21421.549     -109530.3     
   1006000   1006000        0.30741798     0.26245499     351.37869      237.83205      113.54665      96.939302      293.90836     -198.29877     -88902.802     -88300.047      21042.685     -109342.73    
   1007000   1007000        0.30733734     0.31327373     344.18073      249.08024      95.100492      96.937411      299.41269     -1119.6363     -91555.297     -88152.012      21436.774     -109588.79    
   1008000   1008000        0.30745754     0.26442889     359.54463      246.83361      112.71101      96.93712       301.0582       19.379614     -88026.917     -88085.824      21554.586     -109640.41    
   1009000   1009000        0.30761389     0.35212823     346.51978      261.83649      84.683298      96.937691      300.31964     -835.27865     -90598.717     -88059.775      21501.708     -109561.48    
   1010000   1010000        0.3073578      0.30510045     352.00974      254.35177      97.657969      96.940733      297.72207      201.87557     -87338.999     -87952.627      21315.732     -109268.36    
   1011000   1011000        0.30736917     0.31870898     343.46237      249.96961      93.492753      96.941995      300.65639     -464.46946     -89433.729     -88021.912      21525.818     -109547.73    
   1012000   1012000        0.30749848     0.33756895     350.18637      261.87894      88.307427      96.943067      300.72641     -180.78206     -88291.445     -87741.933      21530.831     -109272.76    
   1013000   1013000        0.30739786     0.34228422     350.26427      263.20014      87.064135      96.944979      301.29923      78.244842     -87512.801     -87750.637      21571.842     -109322.48    
   1014000   1014000        0.30731087     0.34590387     344.2488       258.11994      86.128857      96.945171      299.41239     -738.45866     -90284.597     -88039.953      21436.752     -109476.71    
   1015000   1015000        0.30720424     0.33983316     343.0029       255.36246      87.640443      96.948953      299.42644     -243.15773     -88749.129     -88010.018      21437.758     -109447.78    
   1016000   1016000        0.30704501     0.33097545     345.02117      255.08364      89.937525      96.947067      299.12086      74.088259     -87816.205     -88041.406      21415.88      -109457.29    
   1017000   1017000        0.30706946     0.34783813     341.81079      256.22936      85.581436      96.943821      299.2825      -407.32203     -89013.568     -87775.458      21427.453     -109202.91    
   1018000   1018000        0.30738152     0.31808115     347.4495       253.76225      93.687247      96.948403      299.33094     -443.09717     -89252.047     -87905.194      21430.921     -109336.12    
   1019000   1019000        0.30729681     0.33562994     336.74051      247.97725      88.763262      96.947342      298.30655     -152.28141     -88583.927     -88121.048      21357.578     -109478.63    
   1020000   1020000        0.30711525     0.27229056     357.89468      248.55029      109.34438      96.945506      302.54402      30.16006      -87983.574     -88075.249      21660.965     -109736.21    
   1021000   1021000        0.30711364     0.31441292     358.46648      263.76989      94.696596      96.947282      300.63899     -510.7893      -89468.64      -87916.027      21524.572     -109440.6     
Loop time of 16235.2 on 32 procs for 1000000 steps with 24020 atoms

Performance: 5.322 ns/day, 4.510 hours/ns, 61.595 timesteps/s, 1.480 Matom-step/s
99.8% CPU use with 32 MPI tasks x 1 OpenMP threads

MPI task timing breakdown:
Section |  min time  |  avg time  |  max time  |%varavg| %total
---------------------------------------------------------------
Pair    | 9905.5     | 11241      | 12719      | 581.0 | 69.24
Bond    | 305.36     | 342.94     | 383.81     | 112.6 |  2.11
Kspace  | 1755       | 3276.9     | 4629.9     |1108.1 | 20.18
Neigh   | 748.27     | 750.33     | 751.65     |   3.8 |  4.62
Comm    | 362.8      | 383.21     | 413.14     |  64.3 |  2.36
Output  | 0.44138    | 0.45221    | 0.70186    |   6.7 |  0.00
Modify  | 190.63     | 205.08     | 215.86     |  43.3 |  1.26
Other   |            | 35.73      |            |       |  0.22

Nlocal:        750.625 ave         820 max         682 min
Histogram: 1 1 2 6 7 5 6 3 0 1
Nghost:        11339.2 ave       11456 max       11243 min
Histogram: 4 3 4 4 2 4 5 3 1 2
Neighs:         496965 ave      549563 max      443589 min
Histogram: 2 2 0 6 2 12 2 3 2 1

Total # of neighbors = 15902888
Ave neighs/atom = 662.06861
Ave special neighs/atom = 11.983347
Neighbor list builds = 37372
Dangerous builds = 0
Total wall time: 4:36:17
