units real
atom_style full
boundary p p p

# styles
pair_style lj/charmm/coul/long 8.0 12.0
kspace_style pppm 1e-6
dielectric 1.000000
bond_style harmonic
angle_style harmonic
dihedral_style fourier
improper_style cvff
special_bonds amber
pair_modify mix arithmetic
neighbor 2.0 bin
neigh_modify delay 0 every 1 check yes

# system definition
read_data ../final.data
Reading data file ...
  orthogonal box = (-27.956921 -32.298732 -28.85231) to (27.956921 32.298732 28.85231)
  2 by 4 by 4 MPI processor grid
  reading atoms ...
  24020 atoms
  reading velocities ...
  24020 velocities
  scanning bonds ...
  3 = max bonds/atom
  scanning angles ...
  6 = max angles/atom
  scanning dihedrals ...
  27 = max dihedrals/atom
  reading bonds ...
  24010 bonds
  reading angles ...
  48000 angles
  reading dihedrals ...
  71910 dihedrals
Finding 1-2 1-3 1-4 neighbors ...
  special bond factors lj:    0        0        0.5     
  special bond factors coul:  0        0        0.8333333333333334
     4 = max # of 1-2 neighbors
    12 = max # of 1-3 neighbors
    24 = max # of 1-4 neighbors
    28 = max # of special neighbors
  special bonds CPU = 0.117 seconds
  read_data CPU = 0.680 seconds
# do not reset velocities

# vars
variable dt equal 1.0
variable tLog equal 1000
variable nEvery equal 10
variable nRepeat equal 100
variable boolDump equal 0
variable tDump equal 1000

variable tPreeq equal 10000
variable tPrerun equal 10000
variable tDelay equal 1000
variable tTCrun equal 1000000

# desiered temperature difference
variable Tavg equal 300.0
variable TempDiff equal 100.0
variable Thi equal ${Tavg}+(${TempDiff}/2)
variable Thi equal 300+(${TempDiff}/2)
variable Thi equal 300+(100/2)
variable Tlo equal ${Tavg}-(${TempDiff}/2)
variable Tlo equal 300-(${TempDiff}/2)
variable Tlo equal 300-(100/2)

# defining regions
variable hot_lo equal (ly*0)+ylo
variable hot_hi equal (ly*0.05)+ylo
variable cold_lo equal (ly*0.50)+ylo
variable cold_hi equal (ly*0.55)+ylo

# define heating and cooling block regions
region hot block INF INF ${hot_lo} ${hot_hi} INF INF units box
region hot block INF INF -32.2987315657928 ${hot_hi} INF INF units box
region hot block INF INF -32.2987315657928 -29.0688584092136 INF INF units box
region cold block INF INF ${cold_lo} ${cold_hi} INF INF units box
region cold block INF INF 0 ${cold_hi} INF INF units box
region cold block INF INF 0 3.22987315657929 INF INF units box
compute Thot all temp/region hot
compute Tcold all temp/region cold

# STEP 1 - 1st equilibration (nve)
# 1a - thermo output for md1
thermo_style custom step time temp c_Thot c_Tcold press enthalpy etotal ke pe
thermo_modify colname c_Thot Temp_hot colname c_Tcold Temp_cold
thermo_modify flush yes
thermo ${tLog}
thermo 1000

# 1b - nve equilibration
timestep ${dt}
timestep 1
fix md1 all nve
run ${tPreeq}
run 10000
PPPM initialization ...
  using 12-bit tables for long-range coulomb (src/kspace.cpp:342)
  G vector (1/distance) = 0.25883856
  grid = 45 50 45
  stencil order = 5
  estimated absolute RMS force accuracy = 0.0003737492
  estimated relative force accuracy = 1.1255346e-06
  using double precision FFTW3
  3d grid and FFT values/proc = 9918 4500
Generated 3 of 3 mixed pair_coeff terms from arithmetic mixing rule
Neighbor list info ...
  update: every = 1 steps, delay = 0 steps, check = yes
  max neighbors/atom: 2000, page size: 100000
  master list distance cutoff = 14
  ghost atom cutoff = 14
  binsize = 7, bins = 8 10 9
  1 neighbor lists, perpetual/occasional/extra = 1 0 0
  (1) pair lj/charmm/coul/long, perpetual
      attributes: half, newton on
      pair build: half/bin/newton
      stencil: half/bin/3d
      bin: standard
Per MPI rank memory allocation (min/avg/max) = 21.64 | 21.99 | 22.2 Mbytes
   Step          Time           Temp         Temp_hot      Temp_cold        Press         Enthalpy        TotEng         KinEng         PotEng    
         0   0              299.31856      303.31334      302.95506      529.8002      -86442.089     -88052.488      21430.034     -109482.52    
      1000   1000           298.4305       306.43337      295.32393      197.31813     -87453.057     -88052.832      21366.453     -109419.28    
      2000   2000           298.89996      304.62255      300.2398      -303.14149     -88979.205     -88057.766      21400.064     -109457.83    
      3000   3000           301.61727      309.401        300.81257     -130.11563     -88459.098     -88063.594      21594.613     -109658.21    
      4000   4000           298.25845      297.82132      300.06818      106.7854      -87731.653     -88056.242      21354.134     -109410.38    
      5000   5000           298.84073      304.89997      303.36242     -284.27472     -88911.752     -88047.661      21395.824     -109443.48    
      6000   6000           299.47001      314.08802      288.01154      434.12065     -86743.031     -88062.599      21440.878     -109503.48    
      7000   7000           298.37277      305.49046      307.3105      -35.045455     -88161.82      -88055.295      21362.32      -109417.61    
      8000   8000           298.86132      302.22955      306.28457      249.56809     -87298.095     -88056.691      21397.298     -109453.99    
      9000   9000           298.65159      304.56146      305.56327     -32.826304     -88154.793     -88055.013      21382.282     -109437.3     
     10000   10000          299.44555      296.83853      290.03795      210.20371     -87419.091     -88058.033      21439.126     -109497.16    
Loop time of 162.13 on 32 procs for 10000 steps with 24020 atoms

Performance: 5.329 ns/day, 4.504 hours/ns, 61.679 timesteps/s, 1.482 Matom-step/s
99.7% CPU use with 32 MPI tasks x 1 OpenMP threads

MPI task timing breakdown:
Section |  min time  |  avg time  |  max time  |%varavg| %total
---------------------------------------------------------------
Pair    | 103.44     | 115.09     | 129.7      |  68.8 | 70.99
Bond    | 3.1007     | 3.5049     | 3.9745     |  13.2 |  2.16
Kspace  | 16.62      | 31.636     | 43.446     | 134.7 | 19.51
Neigh   | 7.3934     | 7.4126     | 7.4318     |   0.4 |  4.57
Comm    | 3.5825     | 3.8481     | 4.1495     |   5.7 |  2.37
Output  | 0.0010463  | 0.0012675  | 0.0031162  |   1.0 |  0.00
Modify  | 0.10495    | 0.11873    | 0.13101    |   2.3 |  0.07
Other   |            | 0.516      |            |       |  0.32

Nlocal:        750.625 ave         797 max         715 min
Histogram: 5 1 3 4 8 3 3 2 1 2
Nghost:          11324 ave       11448 max       11165 min
Histogram: 2 0 2 4 3 7 5 4 2 3
Neighs:         497018 ave      534126 max      462194 min
Histogram: 4 4 1 2 5 2 5 5 1 3

Total # of neighbors = 15904587
Ave neighs/atom = 662.13934
Ave special neighs/atom = 11.983347
Neighbor list builds = 370
Dangerous builds = 0
unfix md1

# STEP 2 - pre run
# 2a - impose nve
fix md2 all nve

# 2b - impose thermostating
fix hot all langevin ${Thi} ${Thi} 100.0 57485 tally yes
fix hot all langevin 350 ${Thi} 100.0 57485 tally yes
fix hot all langevin 350 350 100.0 57485 tally yes
fix cold all langevin ${Tlo} ${Tlo} 100.0 12490 tally yes
fix cold all langevin 250 ${Tlo} 100.0 12490 tally yes
fix cold all langevin 250 250 100.0 12490 tally yes
fix_modify hot temp Thot
fix_modify cold temp Tcold
# calculate tdiff of regions
variable tdiff equal c_Thot-c_Tcold

# 2c - thermo output
thermo_style custom step time temp c_Thot c_Tcold f_hot f_cold v_tdiff press enthalpy etotal ke pe
WARNING: New thermo_style command, previous thermo_modify settings will be lost (src/output.cpp:904)
thermo_modify colname c_Thot Temp_hot colname c_Tcold Temp_cold               colname f_hot E_hot colname f_cold E_cold               colname v_tdiff dTemp_step
thermo_modify flush yes
thermo ${tLog}
thermo 1000

# 2d - pre run
run ${tPrerun}
run 10000
PPPM initialization ...
  using 12-bit tables for long-range coulomb (src/kspace.cpp:342)
  G vector (1/distance) = 0.25883856
  grid = 45 50 45
  stencil order = 5
  estimated absolute RMS force accuracy = 0.0003737492
  estimated relative force accuracy = 1.1255346e-06
  using double precision FFTW3
  3d grid and FFT values/proc = 9918 4500
Generated 3 of 3 mixed pair_coeff terms from arithmetic mixing rule
Per MPI rank memory allocation (min/avg/max) = 22.39 | 22.81 | 22.95 Mbytes
   Step          Time           Temp         Temp_hot      Temp_cold        E_hot          E_cold       dTemp_step       Press         Enthalpy        TotEng         KinEng         PotEng    
     10000   10000          299.44555      297.74254      290.03795     -0             -0              7.7045903      210.20371     -87419.091     -88058.033      21439.126     -109497.16    
     11000   11000          297.66766      342.80046      252.63544     -836.8146       843.61148      90.165022     -432.5061      -89367.409     -88052.749      21311.837     -109364.59    
     12000   12000          299.30804      355.51438      255.86208     -1087.6166      1159.0227      99.652304     -1076.9422     -91385.698     -88112.188      21429.282     -109541.47    
     13000   13000          296.78761      349.62369      253.03323     -1264.8126      1434.6898      96.590459     -631.35754     -90122.487     -88203.391      21248.828     -109452.22    
     14000   14000          298.9301       344.22579      253.2182      -1454.6757      1635.9341      91.007585      638.42196     -86270.916     -88211.485      21402.222     -109613.71    
     15000   15000          297.41309      355.49996      249.02943     -1664.5765      1799.1772      106.47053     -311.82496     -89098.265     -88150.431      21293.61      -109444.04    
     16000   16000          297.8773       349.63772      256.50605     -1753.0212      1906.331       93.131676     -203.96894     -88787.332     -88167.342      21326.846     -109494.19    
     17000   17000          300.69875      364.82704      250.64593     -1981.0222      1955.661       114.18111      1488.6116     -83462.119     -87986.953      21528.851     -109515.8     
     18000   18000          300.4007       353.13206      265.94814     -1958.1852      1944.32        87.183929     -216.21251     -88646.933     -87989.726      21507.512     -109497.24    
     19000   19000          298.971        347.45728      253.48266     -1916.0774      2170.4218      93.974621     -577.91362     -90016.023     -88259.377      21405.15      -109664.53    
     20000   20000          299.18272      338.84069      256.30606     -2068.9227      2268.5382      82.534632     -295.12204     -89097.776     -88200.713      21420.309     -109621.02    
Loop time of 164.069 on 32 procs for 10000 steps with 24020 atoms

Performance: 5.266 ns/day, 4.557 hours/ns, 60.950 timesteps/s, 1.464 Matom-step/s
99.8% CPU use with 32 MPI tasks x 1 OpenMP threads

MPI task timing breakdown:
Section |  min time  |  avg time  |  max time  |%varavg| %total
---------------------------------------------------------------
Pair    | 100.52     | 113.84     | 130.22     |  75.1 | 69.38
Bond    | 2.9728     | 3.4873     | 3.9836     |  14.1 |  2.13
Kspace  | 16.323     | 33.167     | 46.886     | 143.1 | 20.22
Neigh   | 7.4055     | 7.4243     | 7.4429     |   0.4 |  4.53
Comm    | 3.6322     | 3.8439     | 4.198      |   5.8 |  2.34
Output  | 0.00135    | 0.0014636  | 0.003172   |   0.8 |  0.00
Modify  | 1.8098     | 1.9322     | 2.0774     |   5.5 |  1.18
Other   |            | 0.3748     |            |       |  0.23

Nlocal:        750.625 ave         787 max         721 min
Histogram: 5 2 5 3 3 3 2 5 2 2
Nghost:        11323.5 ave       11454 max       11207 min
Histogram: 4 1 1 6 5 6 3 4 0 2
Neighs:         497022 ave      527325 max      461333 min
Histogram: 3 3 2 3 3 2 7 0 5 4

Total # of neighbors = 15904701
Ave neighs/atom = 662.14409
Ave special neighs/atom = 11.983347
Neighbor list builds = 370
Dangerous builds = 0
unfix md2

# STEP 3 - md for tc caluclation
# 3a - impose nve
fix md3 all nve

# 3b - calculate and output thermal profile
compute ke all ke/atom
variable temp atom c_ke/(1.5*0.001987204)
compute layers all chunk/atom bin/1d y lower 0.05 units reduced
fix bins all ave/chunk ${nEvery} ${nRepeat} ${tLog} layers v_temp file Tprofile_y_lav.dat
fix bins all ave/chunk 10 ${nRepeat} ${tLog} layers v_temp file Tprofile_y_lav.dat
fix bins all ave/chunk 10 100 ${tLog} layers v_temp file Tprofile_y_lav.dat
fix bins all ave/chunk 10 100 1000 layers v_temp file Tprofile_y_lav.dat

# 3c - reset thermostats to zero energy accumulation
fix hot all langevin ${Thi} ${Thi} 100.0 57485 tally yes
fix hot all langevin 350 ${Thi} 100.0 57485 tally yes
fix hot all langevin 350 350 100.0 57485 tally yes
fix cold all langevin ${Tlo} ${Tlo} 100.0 12490 tally yes
fix cold all langevin 250 ${Tlo} 100.0 12490 tally yes
fix cold all langevin 250 250 100.0 12490 tally yes
fix_modify hot temp Thot
fix_modify cold temp Tcold

# 3c - compute average tdiff
fix ave all ave/time ${nEvery} ${nRepeat} ${tLog} v_tdiff ave running
fix ave all ave/time 10 ${nRepeat} ${tLog} v_tdiff ave running
fix ave all ave/time 10 100 ${tLog} v_tdiff ave running
fix ave all ave/time 10 100 1000 v_tdiff ave running

# 3d - time delay run
variable aTime equal time
variable start_time equal ${aTime}
variable start_time equal 20000
run ${tDelay}
run 1000
PPPM initialization ...
  using 12-bit tables for long-range coulomb (src/kspace.cpp:342)
  G vector (1/distance) = 0.25883856
  grid = 45 50 45
  stencil order = 5
  estimated absolute RMS force accuracy = 0.0003737492
  estimated relative force accuracy = 1.1255346e-06
  using double precision FFTW3
  3d grid and FFT values/proc = 9918 4500
Generated 3 of 3 mixed pair_coeff terms from arithmetic mixing rule
Per MPI rank memory allocation (min/avg/max) = 22.64 | 23.06 | 23.2 Mbytes
   Step          Time           Temp         Temp_hot      Temp_cold        E_hot          E_cold       dTemp_step       Press         Enthalpy        TotEng         KinEng         PotEng    
     20000   20000          299.18272      338.2278       256.30606     -0             -0              81.921738     -295.12204     -89097.776     -88200.713      21420.309     -109621.02    
     21000   21000          297.75691      358.20264      247.82556     -144.98017      239.84746      110.37707     -855.49333     -90886.097     -88285.71       21318.226     -109603.94    
Loop time of 16.3561 on 32 procs for 1000 steps with 24020 atoms

Performance: 5.282 ns/day, 4.543 hours/ns, 61.139 timesteps/s, 1.469 Matom-step/s
99.8% CPU use with 32 MPI tasks x 1 OpenMP threads

MPI task timing breakdown:
Section |  min time  |  avg time  |  max time  |%varavg| %total
---------------------------------------------------------------
Pair    | 10.012     | 11.375     | 12.977     |  23.8 | 69.54
Bond    | 0.29352    | 0.34804    | 0.40151    |   4.5 |  2.13
Kspace  | 1.6236     | 3.2677     | 4.6528     |  45.7 | 19.98
Neigh   | 0.73837    | 0.74051    | 0.74232    |   0.1 |  4.53
Comm    | 0.36405    | 0.3851     | 0.42756    |   2.1 |  2.35
Output  | 0.00012033 | 0.00012799 | 0.00027162 |   0.0 |  0.00
Modify  | 0.19115    | 0.20305    | 0.21989    |   1.6 |  1.24
Other   |            | 0.03675    |            |       |  0.22

Nlocal:        750.625 ave         792 max         709 min
Histogram: 2 3 3 3 6 3 3 4 3 2
Nghost:        11324.4 ave       11419 max       11186 min
Histogram: 2 0 3 3 2 4 6 5 1 6
Neighs:         496978 ave      538865 max      458132 min
Histogram: 4 2 2 3 3 7 3 4 2 2

Total # of neighbors = 15903309
Ave neighs/atom = 662.08614
Ave special neighs/atom = 11.983347
Neighbor list builds = 37
Dangerous builds = 0

# 3f - calculate kappa
variable kappa_inst equal (0.5*(abs(f_hot)+abs(f_cold))/(time-${start_time})/(lx*lz)/2.0)*(ly/2.0)/v_tdiff*69478.5785
variable kappa_inst equal (0.5*(abs(f_hot)+abs(f_cold))/(time-20000)/(lx*lz)/2.0)*(ly/2.0)/v_tdiff*69478.5785
variable kappa equal (0.5*(abs(f_hot)+abs(f_cold))/(time-${start_time})/(lx*lz)/2.0)*(ly/2.0)/f_ave*69478.5785
variable kappa equal (0.5*(abs(f_hot)+abs(f_cold))/(time-20000)/(lx*lz)/2.0)*(ly/2.0)/f_ave*69478.5785

# 3e - thermo out
# dump dump_tc all custom 1000 dump.tc_x_ehex.lammpstrj id type mol x y z ix iy iz vx vy vz
thermo_style custom step time v_kappa v_kappa_inst c_Thot c_Tcold v_tdiff f_ave temp press enthalpy etotal ke pe
WARNING: New thermo_style command, previous thermo_modify settings will be lost (src/output.cpp:904)
thermo_modify colname v_kappa kappa colname v_kappa_inst kappa_inst               colname c_Thot Temp_hot colname c_Tcold Temp_cold               colname v_tdiff dTemp_step colname f_ave dTemp
thermo_modify flush yes
thermo ${tLog}
thermo 1000

# 2g - md run for kappa calculation
# optional traj dump
if "${boolDump} == 1" then     "dump tc_dump all atom ${tDump} dump.tc_y.lammpstrj"
run ${tTCrun}
run 1000000
PPPM initialization ...
  using 12-bit tables for long-range coulomb (src/kspace.cpp:342)
  G vector (1/distance) = 0.25883856
  grid = 45 50 45
  stencil order = 5
  estimated absolute RMS force accuracy = 0.0003737492
  estimated relative force accuracy = 1.1255346e-06
  using double precision FFTW3
  3d grid and FFT values/proc = 9918 4500
Generated 3 of 3 mixed pair_coeff terms from arithmetic mixing rule
Per MPI rank memory allocation (min/avg/max) = 22.89 | 23.31 | 23.45 Mbytes
   Step          Time          kappa        kappa_inst      Temp_hot      Temp_cold      dTemp_step       dTemp           Temp          Press         Enthalpy        TotEng         KinEng         PotEng    
     21000   21000          0              0              359.03074      247.82556      111.20517      94.95579       297.75691     -855.49333     -90886.097     -88285.71       21318.226     -109603.94    
     22000   22000          0.22682666     0.24061257     345.29299      256.36815      88.92484       94.329453      298.09199     -117.7942      -88406.976     -88048.924      21342.217     -109391.14    
     23000   23000          0.15881579     0.1425905      361.71341      254.26892      107.44449      96.467503      298.79642     -269.74081     -88975.574     -88155.661      21392.652     -109548.31    
     24000   24000          0.19837525     0.21017984     342.07748      250.79361      91.283868      96.715841      297.61737     -153.35591     -88703.813     -88237.667      21308.236     -109545.9     
     25000   25000          0.2194328      0.21553309     351.40454      253.06868      98.335863      96.58826       297.27005     -89.45459      -88511.827     -88239.918      21283.369     -109523.29    
     26000   26000          0.21659181     0.24498044     342.24887      256.58024      85.668636      96.897202      297.88489     -80.434964     -88424.635     -88180.142      21327.39      -109507.53    
     27000   27000          0.22613245     0.23543083     344.61844      251.81056      92.807883      96.624067      298.28992     -866.61124     -90862.687     -88228.507      21356.388     -109584.89    
     28000   28000          0.2603088      0.22523997     357.94968      245.98703      111.96265      96.879034      298.96993     -18.760323     -88417.894     -88360.87       21405.074     -109765.94    
     29000   29000          0.26191893     0.28425804     349.26879      259.98479      89.284003      96.89905       296.59306      349.2049      -87354.226     -88415.682      21234.899     -109650.58    
     30000   30000          0.26111673     0.29508852     337.65311      251.86379      85.789322      96.95068       294.13208     -176.16657     -89065.83      -88530.348      21058.703     -109589.05    
     31000   31000          0.28874839     0.34355491     336.0308       254.37404      81.656759      97.155799      295.81159     -993.95446     -91400.035     -88378.777      21178.95      -109557.73    
     32000   32000          0.26097704     0.26574916     348.00083      252.22925      95.771577      97.522816      297.68715     -616.32912     -90076.446     -88203.031      21313.232     -109516.26    
     33000   33000          0.27026543     0.30500012     339.30512      252.65658      86.648541      97.784667      297.85727     -784.75818     -90656.428     -88271.05       21325.412     -109596.46    
     34000   34000          0.28278148     0.28511729     343.46093      246.74641      96.71452       97.513395      294.72808      169.2855      -87831.117     -88345.683      21101.374     -109447.06    
     35000   35000          0.2932441      0.30749946     344.52356      251.90011      92.623451      97.126121      296.20188     -126.51081     -88601.11      -88216.563      21206.892     -109423.46    
     36000   36000          0.28306779     0.25369833     355.85263      247.28626      108.56638      97.302162      296.37813      26.198826     -88179.614     -88259.248      21219.512     -109478.76    
     37000   37000          0.28697323     0.2773168      348.00261      247.01511      100.9875       97.589346      296.66043     -435.08072     -89705.063     -88382.577      21239.723     -109622.3     
     38000   38000          0.28152532     0.29688078     339.64392      246.78974      92.854177      97.918796      297.09508      638.41944     -86386.323     -88326.884      21270.842     -109597.73    
     39000   39000          0.26810993     0.26404086     350.96564      251.43536      99.530273      98.019712      297.63825      994.1726      -85289.072     -88310.993      21309.731     -109620.72    
     40000   40000          0.25867872     0.25845554     352.05296      253.87483      98.178136      98.093428      297.22887      222.92232     -87515.461     -88193.063      21280.421     -109473.48    
     41000   41000          0.27110127     0.28217591     344.60541      250.3399       94.265512      98.116311      297.31667      673.52296     -86084.907     -88132.17       21286.707     -109418.88    
     42000   42000          0.27299685     0.21990488     358.99456      237.08783      121.90673      98.198514      297.97924     -570.29032     -89967.638     -88234.164      21334.144     -109568.31    
     43000   43000          0.28608347     0.23397292     354.48745      234.21361      120.27384      98.365772      295.71534      393.2043      -87134.067     -88329.264      21172.058     -109501.32    
     44000   44000          0.25251455     0.25078314     352.47257      253.52019      98.952386      98.273904      295.53686     -313.15325     -89428.88      -88477.009      21159.279     -109636.29    
     45000   45000          0.26893616     0.32202754     331.18053      249.26476      81.915771      98.086975      297.18307      585.90204     -86674.92      -88455.847      21277.142     -109732.99    
     46000   46000          0.2643345      0.27661377     341.29918      247.51947      93.779716      98.136115      294.16228      239.8433      -87650.328     -88379.364      21060.865     -109440.23    
     47000   47000          0.27327483     0.24450011     354.8552       245.20497      109.65023      98.104506      298.97581     -33.891601     -88437.693     -88334.675      21405.495     -109740.17    
     48000   48000          0.27546944     0.24992288     358.75771      250.54065      108.21707      98.181203      297.95228     -583.61604     -90139.314     -88365.335      21332.214     -109697.55    
     49000   49000          0.27923908     0.27785768     353.18261      254.59426      98.58835       98.10063       297.17079     -269.32617     -88997.502     -88178.85       21276.262     -109455.11    
     50000   50000          0.27355576     0.28590809     345.77215      252.00399      93.768158      98.00223       297.68825     -120.38604     -88656.343     -88290.413      21313.311     -109603.72    
     51000   51000          0.28340815     0.27908574     355.35369      255.77121      99.582488      98.0637        296.93859     -86.732545     -88427.911     -88164.275      21259.638     -109423.91    
     52000   52000          0.2761268      0.30676851     350.57738      262.44387      88.13351       97.91366       297.88482     -723.34763     -90444.087     -88245.375      21327.384     -109572.76    
     53000   53000          0.28342696     0.3012631      355.26239      263.22677      92.035625      97.827452      297.70339     -281.29249     -89058.393     -88203.367      21314.394     -109517.76    
     54000   54000          0.27715239     0.25128434     365.62161      257.71331      107.9083       97.836666      298.81246      335.58275     -87096.498     -88116.547      21393.8       -109510.35    
     55000   55000          0.27786576     0.27884259     341.08181      243.50511      97.576698      97.919725      296.9062      -733.28581     -90506.837     -88277.917      21257.319     -109535.24    
     56000   56000          0.26960164     0.24531358     349.1537       241.43358      107.72012      98.015754      296.26499      519.68651     -86859.222     -88438.878      21211.411     -109650.29    
     57000   57000          0.27471334     0.29828002     348.62206      258.45851      90.163548      97.898357      297.20555     -1147.7316     -91693.987     -88205.304      21278.752     -109484.06    
     58000   58000          0.27685403     0.28891424     340.30758      246.53621      93.771372      97.856205      297.68609     -546.97493     -89818.466     -88155.862      21313.156     -109469.02    
     59000   59000          0.2764366      0.25826761     353.68026      248.884        104.79626      97.908454      297.99844      198.56043     -87728.15      -88331.701      21335.519     -109667.22    
     60000   60000          0.27965397     0.30508569     336.58771      246.7981       89.789602      97.955063      295.90234      519.9129      -86770.016     -88350.361      21185.447     -109535.81    
     61000   61000          0.27680435     0.26846134     356.61828      255.72807      100.89021      97.849333      298.46583     -298.01062     -89310.977     -88405.134      21368.983     -109774.12    
     62000   62000          0.2792218      0.30102429     344.34591      253.70377      90.642136      97.71975       297.14581     -164.5681      -88719.258     -88219.031      21274.474     -109493.51    
     63000   63000          0.2747129      0.331242       337.10659      256.02216      81.084431      97.769595      296.68823      35.61974      -88315.74      -88424.011      21241.713     -109665.72    
     64000   64000          0.27441884     0.29000932     342.53124      250.06765      92.463595      97.716704      296.89054      422.66455     -86918.85      -88203.596      21256.197     -109459.79    
     65000   65000          0.27029238     0.32186035     342.69192      260.63794      82.053985      97.708728      295.53897     -850.0303      -90877.681     -88293.901      21159.431     -109453.33    
     66000   66000          0.27839559     0.27272082     347.91929      248.14899      99.770301      97.736599      295.14843      50.970874     -88282.741     -88437.674      21131.47      -109569.14    
     67000   67000          0.27688983     0.26716933     350.85822      249.55119      101.30702      97.750535      295.12652     -878.0181      -91153.765     -88484.912      21129.901     -109614.81    
     68000   68000          0.27667466     0.32169947     347.15672      263.14755      84.009172      97.680455      296.97272      435.70063     -87102.102     -88426.472      21262.082     -109688.55    
     69000   69000          0.2766304      0.24360486     359.6272       248.6672       110.96         97.713037      297.29987     -289.16253     -89305.706     -88426.758      21285.504     -109712.26    
     70000   70000          0.2739313      0.28445187     345.70742      251.66281      94.044618      97.656485      295.71027     -339.97112     -89335.384     -88301.996      21171.695     -109473.69    
     71000   71000          0.2777181      0.29072362     343.44165      250.28182      93.159828      97.522494      296.40207      475.50744     -86857.2       -88302.568      21221.225     -109523.79    
     72000   72000          0.27619619     0.26865771     361.2468       260.90949      100.33731      97.598712      296.83547     -334.97995     -89431.679     -88413.463      21252.255     -109665.72    
     73000   73000          0.28186759     0.23691527     361.80371      245.71024      116.09347      97.578858      297.71732      976.08779     -85385.63      -88352.58       21315.392     -109667.97    
     74000   74000          0.28150249     0.24784252     354.02902      243.20627      110.82275      97.571384      296.07942      154.31926     -87903.975     -88373.049      21198.125     -109571.17    
     75000   75000          0.2836418      0.27854916     350.01549      250.61673      99.398769      97.614116      297.95667      796.59908     -85847.658     -88269.027      21332.529     -109601.56    
     76000   76000          0.27963099     0.28605907     352.90734      257.47789      95.429445      97.623149      298.89453      121.61061     -87937.335     -88306.987      21399.675     -109706.66    
     77000   77000          0.28192303     0.25880374     357.43795      251.15887      106.27908      97.563587      296.41501     -688.69164     -90559.182     -88465.811      21222.152     -109687.96    
     78000   78000          0.28455282     0.2899831      345.19963      249.44885      95.750778      97.578041      295.49333      171.23706     -87876.719     -88397.217      21156.163     -109553.38    
     79000   79000          0.28382244     0.30507805     347.14714      256.4159       90.731237      97.526147      296.3557      -478.61174     -89856.272     -88401.467      21217.905     -109619.37    
     80000   80000          0.2846205      0.26445569     350.28914      245.38811      104.90103      97.468991      295.93143      79.836125     -88114.746     -88357.419      21187.529     -109544.95    
     81000   81000          0.28339249     0.27988058     352.00457      253.29887      98.705709      97.482508      296.67919      372.81909     -87357.425     -88490.659      21241.066     -109731.72    
     82000   82000          0.28823482     0.30843517     348.32644      257.22759      91.098848      97.483324      294.95984      997.45921     -85436.042     -88467.952      21117.967     -109585.92    
     83000   83000          0.29394013     0.26763088     348.81091      241.71705      107.09386      97.508371      297.32531     -683.1563      -90557.772     -88481.227      21287.326     -109768.55    
     84000   84000          0.29030454     0.30737205     343.61899      251.55029      92.068705      97.481582      296.50728     -133.17759     -88832.745     -88427.934      21228.758     -109656.69    
     85000   85000          0.29067479     0.29992261     349.66193      255.15551      94.506425      97.513148      299.31825      230.31546     -87661.584     -88361.658      21430.012     -109791.67    
     86000   86000          0.29551711     0.26598604     350.37111      241.9864       108.38471      97.553811      297.41982      433.71205     -87136.265     -88454.591      21294.092     -109748.68    
     87000   87000          0.29556954     0.26578509     351.42306      242.90781      108.51525      97.580202      297.62182      211.42098     -87763.394     -88406.037      21308.555     -109714.59    
     88000   88000          0.29154809     0.31919463     344.0696       254.9559       89.113699      97.564054      297.69578      190.65741     -87884.67      -88464.199      21313.85      -109778.05    
     89000   89000          0.28993654     0.29320566     349.8843       253.45071      96.433592      97.520909      297.10481     -484.64119     -89955.03      -88481.899      21271.539     -109753.44    
     90000   90000          0.29163743     0.25562891     355.10781      243.81902      111.28879      97.547947      296.69381     -683.1011      -90474.391     -88398.013      21242.113     -109640.13    
     91000   91000          0.28655257     0.28689292     351.27368      253.82164      97.452041      97.567789      297.73348     -293.96718     -89323.591     -88430.039      21316.549     -109746.59    
     92000   92000          0.28481245     0.30538859     349.77423      258.77866      90.995561      97.569492      297.04843      473.27022     -87138.362     -88576.93       21267.502     -109844.43    
     93000   93000          0.28811155     0.31129353     348.37677      258.11391      90.262859      97.525574      297.70888     -567.48715     -90006.099     -88281.146      21314.788     -109595.93    
     94000   94000          0.28938223     0.32319976     339.92222      252.6043       87.317917      97.521986      295.73875     -164.46936     -88890.106     -88390.179      21173.734     -109563.91    
     95000   95000          0.28877216     0.30315473     345.75141      252.78865      92.962759      97.592856      296.30185      314.37256     -87533.018     -88488.596      21214.05      -109702.65    
     96000   96000          0.2871497      0.26652708     354.29174      249.13944      105.1523       97.600437      298.09028      634.81922     -86624.383     -88554.001      21342.095     -109896.1     
     97000   97000          0.285362       0.28447417     344.45155      246.52451      97.927037      97.622362      295.75865     -285.52572     -89421.644     -88553.75       21175.159     -109728.91    
     98000   98000          0.28801242     0.27335617     356.35357      253.49412      102.85945      97.625184      297.58492     -95.942171     -88821.411     -88529.782      21305.913     -109835.7     
     99000   99000          0.28968277     0.30788982     350.61021      258.7379       91.872313      97.646644      298.22599      124.49977     -87871.22      -88249.654      21351.81      -109601.46    
    100000   100000         0.28732597     0.29251501     347.50435      251.67417      95.830179      97.560851      295.85594      594.45998     -86795.462     -88602.403      21182.125     -109784.53    
    101000   101000         0.28748711     0.34318846     336.61721      254.89165      81.725557      97.56009       297.76618     -298.61547     -89213.159     -88305.478      21318.89      -109624.37    
    102000   102000         0.28587685     0.30870795     344.56369      254.28191      90.281777      97.491987      298.02579     -257.05254     -89057.382     -88276.036      21337.477     -109613.51    
    103000   103000         0.28890028     0.26654239     349.18652      243.59785      105.58866      97.417193      295.26491     -158.78782     -88645.005     -88162.348      21139.809     -109302.16    
    104000   104000         0.28521126     0.3131396      349.95738      261.26828      88.689104      97.373681      298.22347      242.63858     -87460.168     -88197.701      21351.63      -109549.33    
    105000   105000         0.28797441     0.26727308     360.55064      255.70767      104.84297      97.306231      297.97639      68.732476     -87905.813     -88114.735      21333.94      -109448.67    
    106000   106000         0.28683376     0.29153987     345.85807      250.13254      95.725533      97.296111      298.92888     -387.22166     -89424.474     -88247.462      21402.135     -109649.6     
    107000   107000         0.28878054     0.33228024     330.19038      245.62819      84.562186      97.299992      294.55827     -778.23049     -90731.508     -88365.972      21089.217     -109455.19    
    108000   108000         0.29049815     0.28637646     348.60613      249.90595      98.700189      97.299796      299.17143     -384.65815     -89479.199     -88309.979      21419.5       -109729.48    
    109000   109000         0.28874277     0.26269914     353.76172      246.81434      106.94738      97.301084      298.16512     -588.85803     -90023.966     -88234.053      21347.452     -109581.51    
    110000   110000         0.29094618     0.25746019     350.84664      240.87223      109.97442      97.317084      298.31894     -392.47197     -89457.834     -88264.862      21358.466     -109623.33    
    111000   111000         0.29106293     0.29785669     344.63013      249.53885      95.091283      97.310826      295.21181      448.81555     -86873.841     -88238.076      21136.008     -109374.08    
    112000   112000         0.29261013     0.30069246     344.58234      249.90838      94.673956      97.288995      297.33381     -309.03011     -89119.614     -88180.276      21287.934     -109468.21    
    113000   113000         0.29049737     0.29933632     336.39469      241.95875      94.435933      97.309331      296.12114      4.6471525     -88150.962     -88165.088      21201.112     -109366.2     
    114000   114000         0.29031803     0.3141467      342.81077      252.8802       89.930576      97.311881      299.29691     -751.78014     -90532.001     -88246.865      21428.484     -109675.35    
    115000   115000         0.29021369     0.25457871     352.27186      241.31163      110.96024      97.335564      298.24535     -168.26936     -88822.2       -88310.723      21353.197     -109663.92    
    116000   116000         0.291599       0.26114516     359.25386      250.54258      108.71128      97.357761      298.62947     -101.89073     -88484.942     -88175.231      21380.698     -109555.93    
    117000   117000         0.29391806     0.29369349     351.24001      253.8307       97.409309      97.33488       298.45956     -233.16471     -88804.366     -88095.63       21368.533     -109464.16    
    118000   118000         0.29493361     0.24681739     362.50142      246.12517      116.37626      97.390339      297.73012     -491.82281     -89732.247     -88237.286      21316.308     -109553.59    
    119000   119000         0.29263494     0.27918527     349.15794      247.11433      102.04361      97.353628      298.38145      19.589197     -88027.638     -88087.182      21362.941     -109450.12    
    120000   120000         0.29047265     0.32045057     335.64718      247.409        88.238184      97.344711      298.50549     -144.94666     -88720.119     -88279.535      21371.822     -109651.36    
    121000   121000         0.29039358     0.30376434     348.85779      255.86079      92.997005      97.27892       298.85638     -129.44288     -88731.278     -88337.82       21396.945     -109734.76    
    122000   122000         0.29119438     0.28281528     346.59947      246.38735      100.21212      97.328523      297.89553      63.095711     -88068.119     -88259.907      21328.151     -109588.06    
    123000   123000         0.29151731     0.33344623     344.79615      259.69047      85.105674      97.346417      299.61688      267.97741     -87270.498     -88085.051      21451.393     -109536.44    
    124000   124000         0.28993203     0.28676263     343.59926      245.14436      98.454899      97.378637      296.31151      4.3501951     -88170.182     -88183.405      21214.742     -109398.15    
    125000   125000         0.29273503     0.29128313     342.1738       244.28084      97.89296       97.407431      296.74653      217.31322     -87533.918     -88194.471      21245.887     -109440.36    
    126000   126000         0.29414291     0.27433353     359.06669      254.64009      104.42659      97.393868      299.88939     -15.472308     -88166.825     -88119.795      21470.904     -109590.7     
    127000   127000         0.2935206      0.28808713     351.76832      252.55694      99.211379      97.374838      296.77337     -534.71546     -89741.626     -88116.286      21247.809     -109364.1     
    128000   128000         0.2931639      0.31416991     339.82122      248.89921      90.922004      97.43682       295.04714     -301.71874     -89136.332     -88219.217      21124.218     -109343.43    
    129000   129000         0.29414175     0.27300803     349.40536      244.45201      104.95336      97.412589      295.79399     -734.74498     -90557.027     -88323.672      21177.689     -109501.36    
    130000   130000         0.29282678     0.3260434      338.84252      251.35004      87.492483      97.417135      297.48757      345.55747     -87357.854     -88408.223      21298.943     -109707.17    
    131000   131000         0.29404257     0.31798356     343.90136      253.80114      90.100221      97.436194      296.11001      16.262855     -88209.995     -88259.428      21200.315     -109459.74    
    132000   132000         0.29172675     0.28968157     349.12156      250.98959      98.13197       97.444007      296.96064     -577.59078     -90186.908     -88431.244      21261.217     -109692.46    
    133000   133000         0.29525913     0.27596782     354.22357      249.99014      104.23343      97.423139      298.00529      515.21947     -86860.575     -88426.654      21336.01      -109762.66    
    134000   134000         0.29655898     0.25586465     358.16883      245.21288      112.95595      97.455938      297.8716       520.06947     -86759.317     -88340.138      21326.438     -109666.58    
    135000   135000         0.29550379     0.30786771     355.91893      262.4249       93.494032      97.405836      297.66414     -123.39376     -88752.374     -88377.302      21311.584     -109688.89    
    136000   136000         0.2951514      0.31660094     341.89617      251.08801      90.808165      97.407465      297.58226      609.54193     -86598.867     -88451.651      21305.722     -109757.37    
    137000   137000         0.29786003     0.28725689     360.03335      259.02135      101.012        97.416201      297.61382     -449.48696     -89798.389     -88432.113      21307.982     -109740.09    
    138000   138000         0.29533728     0.31136303     342.17093      249.76156      92.409367      97.423733      297.86307      65.7507       -88296.114     -88495.973      21325.827     -109821.8     
    139000   139000         0.29588181     0.29156743     353.18427      254.33282      98.85145       97.410055      295.84153     -97.436665     -88834.647     -88538.475      21181.093     -109719.57    
    140000   140000         0.29640583     0.30245951     346.65494      251.20501      95.449931      97.399365      296.95383      767.79736     -85997.437     -88331.26       21260.729     -109591.99    
    141000   141000         0.29703661     0.26260337     354.00353      243.79891      110.20463      97.429421      295.87743      668.0114      -86527.266     -88557.776      21183.663     -109741.44    
    142000   142000         0.29790536     0.29879494     350.01938      252.86619      97.153182      97.443295      297.88826     -438.74659     -89740.228     -88406.599      21327.631     -109734.23    
    143000   143000         0.29819221     0.29588941     343.14825      244.9001       98.248147      97.489423      296.98774     -159.54957     -88967.227     -88482.255      21263.157     -109745.41    
    144000   144000         0.30097903     0.29906123     353.97934      255.84507      98.134269      97.508969      298.46799     -399.98091     -89595.219     -88379.424      21369.137     -109748.56    
    145000   145000         0.29909779     0.27591654     356.88697      251.12929      105.75768      97.561044      299.60401      98.753754     -87958.66      -88258.835      21450.472     -109709.31    
    146000   146000         0.29893822     0.2558815      361.04154      247.11611      113.92543      97.516503      296.74747     -284.79935     -89207.216     -88341.531      21245.954     -109587.48    
    147000   147000         0.29791453     0.31891112     346.34407      255.2518       91.092266      97.512318      298.10569     -200.33732     -89002.332     -88393.38       21343.198     -109736.58    
    148000   148000         0.29956245     0.28377481     355.89659      252.97459      102.922        97.497769      296.22596     -800.02438     -90809.057     -88377.276      21208.617     -109585.89    
    149000   149000         0.29916692     0.28534192     358.13213      255.92024      102.21189      97.488508      298.58746     -337.74634     -89435.168     -88408.543      21377.691     -109786.23    
    150000   150000         0.30110451     0.29551503     347.04106      247.6754       99.36566       97.52111       295.51774     -643.64344     -90391.964     -88435.523      21157.911     -109593.43    
    151000   151000         0.30054808     0.32577328     336.35566      246.39425      89.961412      97.511934      295.15383     -269.68116     -89334.194     -88514.462      21131.856     -109646.32    
    152000   152000         0.30007477     0.28922822     348.52641      247.36278      101.16362      97.506946      296.10308     -74.278173     -88735.675     -88509.897      21199.818     -109709.72    
    153000   153000         0.29974747     0.3000084      352.34649      254.9182       97.428296      97.513108      295.90412     -157.19413     -88779.499     -88301.686      21185.574     -109487.26    
    154000   154000         0.30078034     0.2660048      364.79436      254.55102      110.24334      97.497255      297.56054      87.695926     -88234.95      -88501.513      21304.167     -109805.68    
    155000   155000         0.29950745     0.28636884     348.41044      246.4156       101.99484      97.520596      297.41542     -21.297639     -88469.434     -88404.697      21293.777     -109698.47    
    156000   156000         0.29879359     0.27343365     347.10572      240.55369      106.55203      97.508481      293.4209       274.2206      -87801.029     -88634.559      21007.785     -109642.34    
    157000   157000         0.29906239     0.28482805     341.64436      239.24273      102.40163      97.527664      295.30045      178.27448     -87993.354     -88535.243      21142.354     -109677.6     
    158000   158000         0.3011491      0.26937005     362.66514      253.63368      109.03146      97.525807      298.02155      188.8207      -87734.935     -88308.88       21337.174     -109646.05    
    159000   159000         0.30214765     0.29255896     358.75401      258.0351       100.71891      97.522583      298.05314      1286.8295     -84313.691     -88225.181      21339.436     -109564.62    
    160000   160000         0.29808995     0.34582721     338.23821      254.1857       84.052507      97.512998      297.86051     -811.65026     -90826.045     -88358.926      21325.644     -109684.57    
    161000   161000         0.29878448     0.32147041     343.91575      253.30628      90.609477      97.489221      297.08091      432.03092     -86932.197     -88245.413      21269.828     -109515.24    
    162000   162000         0.29759672     0.25962351     362.98336      251.24231      111.74105      97.482942      299.50874      634.86088     -86347.838     -88277.583      21443.651     -109721.23    
    163000   163000         0.29845663     0.27624405     351.50643      246.20664      105.2998       97.462878      295.89763     -159.11778     -88776.325     -88292.665      21185.109     -109477.77    
    164000   164000         0.29854396     0.279087       352.18583      247.88652      104.29931      97.501825      296.94038      50.987011     -88252.617     -88407.599      21259.766     -109667.37    
    165000   165000         0.29996768     0.2606234      363.58726      251.35827      112.229        97.508848      296.94188      123.85601     -87958.199     -88334.676      21259.874     -109594.55    
    166000   166000         0.30111377     0.26417378     358.78398      247.60801      111.17597      97.537139      295.44862     -535.77735     -90116.211     -88487.644      21152.962     -109640.61    
    167000   167000         0.30066014     0.30009738     348.27581      250.56838      97.707429      97.524548      295.62935     -73.554945     -88605.747     -88382.167      21165.902     -109548.07    
    168000   168000         0.3004365      0.3469331      348.31142      263.86533      84.446084      97.515256      299.57689     -574.83592     -90152.445     -88405.154      21448.53      -109853.68    
    169000   169000         0.30115364     0.26191196     361.00781      248.86224      112.14557      97.532495      296.81817     -393.4834      -89720.352     -88524.307      21251.017     -109775.32    
    170000   170000         0.30078181     0.33580213     347.99594      260.62033      87.375606      97.548833      298.12451     -632.60686     -90375.239     -88452.346      21344.545     -109796.89    
    171000   171000         0.30074101     0.35801646     343.74079      261.80646      81.93433       97.538538      295.46767     -465.9295      -89963.398     -88547.143      21154.326     -109701.47    
    172000   172000         0.30246883     0.27017012     355.82953      246.63619      109.19333      97.533279      296.23405     -186.24168     -89189.747     -88623.641      21209.196     -109832.84    
    173000   173000         0.30143015     0.31478512     338.05138      244.65896      93.392422      97.530203      295.86607     -116.68952     -88900.972     -88546.279      21182.85      -109729.13    
    174000   174000         0.29938663     0.30390842     344.6024       248.5443       96.058093      97.508909      296.05343      143.03547     -87911.816     -88346.591      21196.264     -109542.86    
    175000   175000         0.30185772     0.29780719     344.39212      245.59469      98.797427      97.471699      298.65068      108.46732     -88019.972     -88349.673      21382.217     -109731.89    
    176000   176000         0.30020285     0.34403562     342.35183      257.29073      85.061103      97.480919      295.85864      114.93664     -88034.331     -88383.697      21182.318     -109566.01    
    177000   177000         0.29988077     0.32229779     348.77279      258.06585      90.706934      97.48756       297.62233     -964.06433     -91319.608     -88389.206      21308.591     -109697.8     
    178000   178000         0.30155807     0.36134552     346.60152      265.2515       81.35002       97.478624      300.0038      -500.53826     -89766.111     -88244.658      21479.095     -109723.75    
    179000   179000         0.30255415     0.29428193     346.56925      246.3712       100.19804      97.458502      298.71789     -577.27924     -90064.491     -88309.774      21387.029     -109696.8     
    180000   180000         0.3037168      0.31250196     346.48482      251.77319      94.711625      97.451206      296.4839       461.8872      -86863.948     -88267.916      21227.084     -109495       
    181000   181000         0.30175961     0.26570638     352.20702      241.53754      110.66948      97.447061      298.60001     -2.3202363     -88270.997     -88263.945      21378.589     -109642.53    
    182000   182000         0.30179561     0.31532353     340.05063      246.76736      93.283272      97.464675      295.8249       462.4718      -87082.122     -88487.867      21179.902     -109667.77    
    183000   183000         0.30284387     0.25074322     361.07051      243.35273      117.71777      97.465845      296.15143     -68.151119     -88663.741     -88456.586      21203.28      -109659.87    
    184000   184000         0.30323578     0.26463418     362.19382      250.48954      111.70428      97.484445      300.23656      37.843905     -88071.973     -88187.005      21495.759     -109682.76    
    185000   185000         0.30059262     0.3168468      357.28389      264.79618      92.487711      97.488872      295.87494      106.05537     -88044.497     -88366.866      21183.485     -109550.35    
    186000   186000         0.30170927     0.29985357     346.71923      248.63301      98.086214      97.482923      296.40138      43.776658     -88356.502     -88489.567      21221.176     -109710.74    
    187000   187000         0.30164474     0.35320938     337.52198      254.26894      83.253042      97.484726      295.98382      223.01207     -87806.118     -88483.993      21191.28      -109675.27    
    188000   188000         0.30153737     0.32752323     345.28679      255.53485      89.75194       97.486574      296.23757     -623.15518     -90303.818     -88409.655      21209.448     -109619.1     
    189000   189000         0.30117046     0.29166518     360.3724       259.70249      100.66991      97.492649      297.22955     -246.5894      -89200.4       -88450.859      21280.47      -109731.33    
    190000   190000         0.30152506     0.27253225     357.48814      249.61168      107.87646      97.503721      296.10856     -81.474059     -88603.004     -88355.352      21200.211     -109555.56    
    191000   191000         0.30021952     0.29274928     345.69653      245.70952      99.987004      97.499066      296.32536     -257.94663     -89371.098     -88587.035      21215.733     -109802.77    
    192000   192000         0.30074063     0.28211951     347.7946       243.8754       103.91921      97.484785      295.27421      216.22727     -87956.914     -88614.166      21140.475     -109754.64    
    193000   193000         0.29992196     0.31954815     345.22711      253.74889      91.478218      97.464337      298.64538     -179.83405     -89124.724     -88578.095      21381.838     -109959.93    
    194000   194000         0.29935536     0.30473469     343.24437      247.50188      95.742495      97.46296       296.61623      475.17912     -87084.698     -88529.068      21236.558     -109765.63    
    195000   195000         0.29995488     0.34443358     336.33204      251.47503      84.85701       97.440001      294.78029     -420.43992     -89636.724     -88358.741      21105.112     -109463.85    
    196000   196000         0.29970429     0.28625521     353.15965      251.14887      102.01078      97.433099      296.44967      271.9623      -87591.14      -88417.806      21224.633     -109642.44    
    197000   197000         0.29952565     0.26990124     350.32042      242.18222      108.1382       97.442848      296.09726      26.788315     -88400.122     -88481.548      21199.402     -109680.95    
    198000   198000         0.2992707      0.3232837      342.9999       252.78171      90.218192      97.457156      296.46307     -180.37331     -89022.754     -88474.485      21225.593     -109700.08    
    199000   199000         0.29916838     0.29155348     347.70198      247.6954       100.00659      97.461062      296.39085     -229.17359     -89138.684     -88442.08       21220.422     -109662.5     
    200000   200000         0.29969789     0.26217256     363.1549       251.75291      111.40199      97.453288      298.289        485.89907     -86863.234     -88340.189      21356.322     -109696.51    
    201000   201000         0.2992166      0.29733551     345.55741      247.48523      98.072181      97.455627      295.28901      242.36445     -87794.653     -88531.352      21141.534     -109672.89    
    202000   202000         0.29934177     0.32362621     344.7503       254.6108       90.139509      97.452177      297.77546     -585.21681     -90124.555     -88345.71       21319.554     -109665.26    
    203000   203000         0.2986108      0.31291312     345.00434      251.99919      93.005151      97.459744      297.18253     -377.31837     -89688.765     -88541.855      21277.103     -109818.96    
    204000   204000         0.29951388     0.27234469     354.78443      247.59777      107.18665      97.46365       295.098        96.823706     -88271.49      -88565.799      21127.859     -109693.66    
    205000   205000         0.29971753     0.32074279     352.33323      261.23785      91.095379      97.485742      298.572        107.02178     -87921.469     -88246.776      21376.584     -109623.36    
    206000   206000         0.2988574      0.38835487     333.67568      258.64701      75.028671      97.497167      296.889        358.34193     -87279.878     -88369.106      21256.087     -109625.19    
    207000   207000         0.29890274     0.29772527     346.39998      248.52426      97.875722      97.49016       294.66246      23.318975     -88395.835     -88466.717      21096.676     -109563.39    
    208000   208000         0.29835678     0.37609485     334.57681      257.22814      77.348669      97.502178      298.01923     -180.09051     -89053.141     -88505.732      21337.008     -109842.74    
    209000   209000         0.30038499     0.3059469      344.11034      248.39717      95.713173      97.485392      295.59174     -389.64409     -89568.99      -88384.615      21163.209     -109547.82    
    210000   210000         0.30078798     0.3329891      340.92625      252.84086      88.085397      97.515455      297.83279      243.48085     -87537.048     -88277.14       21323.659     -109600.8     
    211000   211000         0.30164749     0.27907491     346.78879      241.39704      105.39176      97.505185      296.69257      748.40309     -86078.543     -88353.414      21242.024     -109595.44    
    212000   212000         0.30265191     0.28262827     347.78322      243.3902       104.39302      97.486311      297.93071      181.32541     -87766.059     -88317.222      21330.67      -109647.89    
    213000   213000         0.3008967      0.31631371     347.56183      254.82255      92.739284      97.490955      298.52961     -736.60684     -90536.699     -88297.684      21373.549     -109671.23    
    214000   214000         0.30159855     0.30822442     354.51696      259.13319      95.383771      97.479275      298.01512     -912.52217     -91007.846     -88234.113      21336.713     -109570.83    
    215000   215000         0.30359384     0.35162743     345.27983      261.11321      84.166618      97.483175      298.7889      -372.33148     -89199.249     -88067.497      21392.113     -109459.61    
    216000   216000         0.30300603     0.26990634     358.95004      249.4983       109.45175      97.495485      298.25952     -636.86272     -90272.853     -88337.023      21354.211     -109691.23    
    217000   217000         0.30291222     0.2646696      363.48003      251.92087      111.55916      97.474835      297.81721     -350.03275     -89222.182     -88158.211      21322.544     -109480.75    
    218000   218000         0.30273193     0.26463165     359.8647       248.35042      111.51428      97.479664      296.90017     -1349.4246     -92347.163     -88245.406      21256.887     -109502.29    
    219000   219000         0.30182103     0.27625752     359.70738      253.19596      106.51141      97.490158      297.93878      191.97052     -87679.094     -88262.614      21331.248     -109593.86    
    220000   220000         0.30188456     0.29361051     349.8403       249.60012      100.24018      97.492797      297.31263     -36.201898     -88466.859     -88356.819      21286.418     -109643.24    
    221000   221000         0.30188375     0.32243723     342.77647      251.48721      91.289258      97.504605      297.02708     -314.47413     -89141.244     -88185.358      21265.973     -109451.33    
    222000   222000         0.30106428     0.30309753     356.22635      259.35669      96.869666      97.523879      299.27497      223.32609     -87552.27      -88231.1        21426.913     -109658.01    
    223000   223000         0.30213904     0.29319116     356.08232      255.58073      100.50159      97.525224      298.04171      41.743685     -88034.204     -88161.09       21338.617     -109499.71    
    224000   224000         0.30170044     0.30110571     350.38755      252.6446       97.742943      97.550268      298.80979     -15.136778     -88322.161     -88276.151      21393.608     -109669.76    
    225000   225000         0.29898199     0.31470788     347.54885      254.88413      92.664724      97.538714      298.78211      172.23744     -87797.212     -88320.75       21391.627     -109712.38    
    226000   226000         0.29993617     0.30411946     351.15595      254.96332      96.19263       97.534254      297.7848       633.56609     -86471.868     -88397.677      21320.223     -109717.9     
    227000   227000         0.29918599     0.27602621     357.89919      252.18329      105.7159       97.532503      296.48553     -582.79356     -90196.276     -88424.797      21227.2       -109652       
    228000   228000         0.29924082     0.39184227     330.58738      256.10988      74.477501      97.524906      295.25442     -348.11292     -89488.54      -88430.404      21139.058     -109569.46    
    229000   229000         0.29878477     0.26628362     352.50477      243.07719      109.42758      97.524292      296.13522      321.75166     -87463.708     -88441.715      21202.12      -109643.83    
    230000   230000         0.30051614     0.31814651     336.48808      244.36924      92.118839      97.523173      296.04943     -33.09139      -88586.71      -88486.124      21195.978     -109682.1     
    231000   231000         0.30091695     0.30063513     344.88961      247.26344      97.62617       97.534739      296.108        70.861229     -88208.977     -88424.37       21200.171     -109624.54    
    232000   232000         0.30100658     0.29903357     358.91772      260.73889      98.178831      97.535299      296.71445     -400.69547     -89573.132     -88355.164      21243.59      -109598.75    
    233000   233000         0.30057959     0.27387589     358.56121      251.51963      107.04157      97.531929      296.89463      149.34706     -88049.928     -88503.888      21256.491     -109760.38    
    234000   234000         0.29983077     0.30114215     351.43423      254.31502      97.11921       97.543984      296.99575     -248.14461     -89357.812     -88603.543      21263.73      -109867.27    
    235000   235000         0.30050948     0.3384212      338.71126      252.0848       86.626465      97.555099      297.47548     -560.53192     -90237.329     -88533.518      21298.078     -109831.6     
    236000   236000         0.30025858     0.29107874     340.92739      240.28755      100.63984      97.562966      295.22172      184.98428     -87989.415     -88551.699      21136.717     -109688.42    
    237000   237000         0.30081158     0.29487948     348.28852      248.76142      99.527096      97.564391      295.47739      195.60447     -88012.022     -88606.588      21155.022     -109761.61    
    238000   238000         0.30049642     0.27363102     356.70422      249.54359      107.16063      97.580105      296.46416     -178.11993     -89161.367     -88619.948      21225.671     -109845.62    
    239000   239000         0.29935097     0.32054557     347.53377      256.40103      91.132733      97.585098      294.45927     -221.18059     -89185.413     -88513.105      21082.128     -109595.23    
    240000   240000         0.29950113     0.31711252     338.72673      246.54767      92.179061      97.599413      296.56425     -225.80565     -89163.229     -88476.863      21232.837     -109709.7     
    241000   241000         0.29960521     0.31795258     349.1548       257.20226      91.952544      97.583576      296.76655     -469.67842     -89874.276     -88446.625      21247.321     -109693.95    
    242000   242000         0.29976383     0.30706576     348.34366      253.08182      95.261839      97.582316      296.32876      207.30159     -87777.9       -88408.021      21215.977     -109624       
    243000   243000         0.29959183     0.31249842     350.75018      257.20262      93.547563      97.577645      297.50131      117.62075     -87942.12      -88299.644      21299.927     -109599.57    
    244000   244000         0.30094305     0.29532514     347.65539      248.22336      99.432034      97.575867      296.55429      633.74957     -86476.632     -88402.999      21232.123     -109635.12    
    245000   245000         0.30136322     0.33329865     339.51692      251.28709      88.229824      97.579529      296.11477     -703.56763     -90516.328     -88377.74       21200.656     -109578.4     
    246000   246000         0.3002131      0.29595643     354.95795      255.96984      98.988106      97.584572      298.42318     -379.80429     -89435.325     -88280.859      21365.929     -109646.79    
    247000   247000         0.30071753     0.31179012     342.71269      248.60727      94.105421      97.570437      294.42222      177.25558     -87770.109     -88308.901      21079.476     -109388.38    
    248000   248000         0.29929959     0.35435226     339.40747      257.00193      82.405536      97.563073      294.9662      -654.56181     -90455.129     -88465.501      21118.423     -109583.92    
    249000   249000         0.29995382     0.27322621     355.11812      248.02697      107.09116      97.548719      296.38205      235.3618      -87780.099     -88495.513      21219.792     -109715.3     
    250000   250000         0.29934565     0.32275422     346.98745      256.5163       90.471151      97.545917      295.83713     -446.12198     -89864.026     -88507.978      21180.778     -109688.76    
    251000   251000         0.30038113     0.257951       363.53829      249.93169      113.60661      97.559185      294.50872     -328.53452     -89477.944     -88479.319      21085.669     -109564.99    
    252000   252000         0.30165623     0.27378002     344.93359      237.4363       107.49729      97.563408      293.64412     -520.77907     -90195.81      -88612.833      21023.767     -109636.6     
    253000   253000         0.30100524     0.2628087      354.03444      242.27123      111.7632       97.580831      295.72175     -170.63263     -89264.05      -88745.389      21172.517     -109917.91    
    254000   254000         0.30086471     0.30352763     338.98931      242.27372      96.715581      97.571598      294.50549      224.5991      -87924.283     -88606.982      21085.438     -109692.42    
    255000   255000         0.30044154     0.30576753     347.38698      251.49864      95.888343      97.588175      294.55508      292.1646      -87653.079     -88541.153      21088.988     -109630.14    
    256000   256000         0.30081119     0.3264021      343.90351      253.95997      89.943541      97.59531       294.89451      66.917953     -88453.459     -88656.866      21113.29      -109770.16    
    257000   257000         0.30140665     0.29505032     340.39507      240.70356      99.691508      97.589126      293.91029     -58.023055     -88881.206     -88704.837      21042.824     -109747.66    
    258000   258000         0.30179464     0.28361327     349.60002      245.74829      103.85173      97.595265      295.78719      175.28229     -88055.539     -88588.333      21177.202     -109765.54    
    259000   259000         0.30046149     0.32524484     345.4835       255.33922      90.144284      97.579772      293.94251     -139.70187     -89013.638     -88588.996      21045.13      -109634.13    
    260000   260000         0.30209516     0.29308555     352.32374      251.74281      100.58093      97.581234      296.51892     -136.99268     -89001.268     -88584.86       21229.591     -109814.45    
    261000   261000         0.30117793     0.31033796     349.47886      254.77455      94.704308      97.584647      296.14392     -606.17888     -90562.056     -88719.495      21202.742     -109922.24    
    262000   262000         0.30123623     0.27853956     356.33095      250.81165      105.5193       97.568939      296.64643     -392.25107     -89777.159     -88584.859      21238.72      -109823.58    
    263000   263000         0.30111671     0.34522687     338.61055      253.50833      85.102219      97.568725      292.56688     -87.468576     -88931.34      -88665.468      20946.641     -109612.11    
    264000   264000         0.30065868     0.31417478     342.82166      249.43032      93.391344      97.589748      294.2425       316.05761     -87769.237     -88729.936      21066.608     -109796.54    
    265000   265000         0.30245778     0.33463215     344.48898      256.2883       88.200683      97.583155      294.29402      139.25584     -88211.779     -88635.066      21070.298     -109705.36    
    266000   266000         0.30181459     0.38112793     335.29166      258.02256      77.269093      97.574505      294.21315     -244.58236     -89506.185     -88762.744      21064.507     -109827.25    
    267000   267000         0.30267779     0.33798239     336.94069      249.56311      87.377584      97.569381      293.94591      607.44715     -86844.009     -88690.426      21045.374     -109735.8     
    268000   268000         0.30414672     0.27476265     348.0465       240.03125      108.01525      97.579738      295.79671     -795.11222     -90949.748     -88532.898      21177.884     -109710.78    
    269000   269000         0.30324704     0.30079603     352.3776       253.99074      98.386862      97.591644      294.79933      601.72639     -86650.555     -88479.583      21106.475     -109586.06    
    270000   270000         0.3031966      0.31013477     346.14496      250.75389      95.391068      97.573941      297.12016     -102.07299     -88765.083     -88454.818      21272.638     -109727.46    
    271000   271000         0.30462654     0.30656955     342.4376       245.48243      96.955172      97.573584      297.42528     -130.50803     -88716.477     -88319.78       21294.483     -109614.26    
    272000   272000         0.30264475     0.3384724      347.22135      259.9811       87.240255      97.567919      297.99039      903.41054     -85621.881     -88367.918      21334.943     -109702.86    
    273000   273000         0.30296016     0.30703474     344.00333      247.74613      96.257203      97.551789      295.20286      246.94897     -87763.799     -88514.433      21135.367     -109649.8     
    274000   274000         0.30397948     0.3184908      350.52136      257.41866      93.102708      97.54723       297.64529     -323.66115     -89391.624     -88407.813      21310.235     -109718.05    
    275000   275000         0.30447632     0.25245196     360.63093      242.94302      117.68791      97.579165      296.68786      164.58561     -87893.618     -88393.898      21241.687     -109635.58    
    276000   276000         0.30467956     0.28397703     347.72075      243.0232       104.69754      97.583498      295.28017     -575.93643     -90145.752     -88395.116      21140.902     -109536.02    
    277000   277000         0.30380313     0.31263774     340.06893      245.23717      94.831761      97.589473      297.5254      -327.80276     -89247.123     -88250.723      21301.652     -109552.37    
    278000   278000         0.30332307     0.30419894     349.21557      251.89445      97.321113      97.602135      296.21502     -574.88324     -90097.013     -88349.578      21207.833     -109557.41    
    279000   279000         0.30277298     0.30897739     340.42654      244.76732      95.659217      97.619461      294.88933     -309.85379     -89473.116     -88531.274      21112.919     -109644.19    
    280000   280000         0.30352538     0.27846506     361.26233      254.86885      106.39348      97.609188      295.07084      46.741553     -88190.716     -88332.793      21125.914     -109458.71    
    281000   281000         0.30400392     0.28159909     354.13555      248.74859      105.38696      97.620036      297.02434     -93.702136     -88682.968     -88398.148      21265.778     -109663.93    
    282000   282000         0.30447654     0.23909587     365.35075      241.06173      124.28902      97.600269      297.54316     -313.13994     -89316.588     -88364.757      21302.923     -109667.68    
    283000   283000         0.30444216     0.34001352     347.53695      260.13906      87.397887      97.609553      297.80144      3.1475224     -88160.236     -88169.803      21321.415     -109491.22    
    284000   284000         0.30456788     0.26978944     365.03227      254.82066      110.21161      97.626601      298.73414     -28.182384     -88377.1       -88291.436      21388.192     -109679.63    
    285000   285000         0.30313752     0.31670591     342.19421      248.74951      93.444691      97.627262      294.78775     -723.20563     -90686.849     -88488.569      21105.646     -109594.22    
    286000   286000         0.30301876     0.31553143     339.06778      245.30066      93.76712       97.639083      296.97601     -965.99095     -91497.26      -88561.001      21262.317     -109823.32    
    287000   287000         0.30329651     0.28054703     350.45763      244.88858      105.56905      97.650592      296.18162      230.34182     -87861.293     -88561.447      21205.442     -109766.89    
    288000   288000         0.30261269     0.30436412     350.2103       253.11715      97.093154      97.6551        295.09513      341.96062     -87395.065     -88434.5        21127.653     -109562.15    
    289000   289000         0.30290114     0.33132568     351.18339      261.90918      89.27421       97.651791      298.21087     -68.612206     -88757.125     -88548.569      21350.728     -109899.3     
    290000   290000         0.30380552     0.28239458     356.97094      251.92675      105.04419      97.641119      297.17079     -444.8968      -89800.565     -88448.242      21276.263     -109724.5     
    291000   291000         0.30338481     0.30624212     348.18312      251.45284      96.730277      97.641295      298.67074      35.005678     -88396.317     -88502.721      21383.653     -109886.37    
    292000   292000         0.30356255     0.28581324     342.15442      238.42857      103.72586      97.661002      295.25322     -810.60549     -91066.205     -88602.261      21138.972     -109741.23    
    293000   293000         0.30283609     0.29774868     343.2406       243.91106      99.329541      97.660882      294.5671      -547.02612     -90153.714     -88490.954      21089.848     -109580.8     
    294000   294000         0.30344727     0.28605096     352.64765      249.03558      103.61208      97.672106      295.47283     -397.87485     -89742.279     -88532.885      21154.695     -109687.58    
    295000   295000         0.30309561     0.32487876     350.02027      258.89189      91.128383      97.67768       296.06762     -787.77054     -90843.262     -88448.728      21197.28      -109646.01    
    296000   296000         0.30393765     0.26553178     363.03844      251.21099      111.82744      97.696812      298.13861     -38.953832     -88408.297     -88289.891      21345.555     -109635.45    
    297000   297000         0.30254778     0.33253565     346.1025       257.21004      88.892458      97.703283      297.49163     -580.82316     -90188.094     -88422.604      21299.234     -109721.84    
    298000   298000         0.30323324     0.27570759     357.27581      249.82596      107.44985      97.696213      296.24089      138.61508     -88067.24      -88488.579      21209.685     -109698.26    
    299000   299000         0.30300086     0.30775331     349.54621      253.358        96.188209      97.696884      298.5462      -776.80941     -90699.305     -88338.089      21374.737     -109712.83    
    300000   300000         0.30366094     0.30788969     347.6025       251.24999      96.352505      97.694301      297.50399     -287.1602      -89184.89      -88312.028      21300.119     -109612.15    
    301000   301000         0.30340336     0.31274164     342.14858      247.37413      94.774449      97.691457      299.59983     -856.83202     -90910.753     -88306.298      21450.172     -109756.47    
    302000   302000         0.30404761     0.31025085     342.88635      247.13582      95.750534      97.704056      297.77742     -203.30222     -88923.844     -88305.879      21319.695     -109625.57    
    303000   303000         0.30431314     0.28931966     350.72155      247.94124      102.78031      97.716331      298.2531      -103.34443     -88442.026     -88127.897      21353.752     -109481.65    
    304000   304000         0.30466638     0.30418102     350.76239      252.88945      97.872939      97.717019      297.92796      3.283526      -88291.392     -88301.373      21330.473     -109631.85    
    305000   305000         0.3043961      0.28771949     349.0565       245.67358      103.38292      97.718995      296.32364     -829.38112     -90919.282     -88398.267      21215.61      -109613.88    
    306000   306000         0.30499761     0.25919651     357.75232      242.77734      114.97498      97.709337      297.29901     -619.55524     -90203.775     -88320.554      21285.443     -109606       
    307000   307000         0.30439691     0.29285631     349.63052      248.06531      101.56521      97.714567      296.9509       276.83724     -87571.029     -88412.512      21260.52      -109673.03    
    308000   308000         0.30548832     0.28840317     350.50244      246.99882      103.50362      97.714933      298.38823      36.594631     -88047.513     -88158.747      21363.427     -109522.17    
    309000   309000         0.30453632     0.32699031     353.45623      262.44582      91.010411      97.720766      298.05156     -46.356627     -88278.566     -88137.659      21339.322     -109476.98    
    310000   310000         0.30566713     0.35626049     335.53761      251.69072      83.846891      97.725046      298.25875      25.483956     -88026.858     -88104.32       21354.156     -109458.48    
    311000   311000         0.30494466     0.31449505     348.5792       253.8154       94.763797      97.731651      300.69783     -137.86186     -88614.59      -88195.54       21528.785     -109724.32    
    312000   312000         0.30512151     0.33201889     338.80575      248.98307      89.822678      97.740817      299.79551     -146.0126      -88492.428     -88048.603      21464.182     -109512.79    
    313000   313000         0.30435635     0.32400518     346.93161      255.11599      91.815614      97.743105      298.12161     -975.02136     -90996.216     -88032.508      21344.338     -109376.85    
    314000   314000         0.30473587     0.26025153     353.09334      238.64325      114.45009      97.743042      299.08444      240.98618     -87270.002     -88002.511      21413.273     -109415.78    
    315000   315000         0.30406703     0.30342644     340.9158       242.97701      97.938788      97.732457      297.20652     -58.127772     -88294.689     -88118.002      21278.821     -109396.82    
    316000   316000         0.30406929     0.34231507     340.96254      254.14414      86.8184        97.738401      299.04194     -766.17654     -90432.91      -88104.014      21410.23      -109514.24    
    317000   317000         0.30467167     0.31366643     354.63596      259.69262      94.943341      97.746334      297.4664      -322.40625     -89162.547     -88182.55       21297.427     -109479.98    
    318000   318000         0.30518966     0.31597466     347.66585      253.23943      94.426416      97.763321      296.6012      -205.58301     -88894.024     -88269.127      21235.482     -109504.61    
    319000   319000         0.30481399     0.30217917     357.2455       258.62207      98.623429      97.770925      297.2901       437.24129     -86901.15      -88230.204      21284.804     -109515.01    
    320000   320000         0.30486493     0.27218559     352.40733      242.89396      109.51337      97.774319      297.4188      -1007.9794     -91360.642     -88296.754      21294.019     -109590.77    
    321000   321000         0.30464284     0.31662916     347.91961      253.84604      94.073564      97.774934      298.5635       537.06708     -86602.519     -88235.006      21375.975     -109610.98    
[...]
    932000   932000         0.30884463     0.34474798     330.43171      242.98005      87.451667      97.617971      296.7838      -312.19429     -89412.902     -88463.945      21248.555     -109712.5     
    933000   933000         0.30882986     0.33945433     344.384        255.56989      88.814109      97.621176      298.52316      443.41438     -86986.472     -88334.289      21373.087     -109707.38    
    934000   934000         0.30915726     0.29483957     346.89257      244.52471      102.36786      97.627001      297.37384     -132.19369     -88746.679     -88344.859      21290.8       -109635.66    
    935000   935000         0.3089818      0.31149778     341.59136      244.7455       96.845865      97.634461      295.73039     -374.76706     -89688.422     -88549.267      21173.136     -109722.4     
    936000   936000         0.30853        0.30184847     354.19133      254.3964       99.794933      97.63377       295.92443     -4.2909094     -88483.332     -88470.289      21187.028     -109657.32    
    937000   937000         0.30888356     0.29261652     347.73194      244.669        103.06294      97.635236      297.6189      -229.82799     -89049.26      -88350.667      21308.346     -109659.01    
    938000   938000         0.308616       0.35182918     341.01336      255.36643      85.646931      97.639428      297.6676       160.18788     -88011.965     -88498.877      21311.832     -109810.71    
    939000   939000         0.30848161     0.31198869     346.99644      250.44825      96.548188      97.645828      295.42025      6.2950541     -88447.794     -88466.928      21150.931     -109617.86    
    940000   940000         0.30813709     0.30791836     344.79198      247.07588      97.716102      97.646741      296.33741      92.65118      -88028.41      -88310.035      21216.596     -109526.63    
    941000   941000         0.30843526     0.26697891     357.56482      244.76128      112.80354      97.641776      298.43527     -752.70939     -90556.892     -88268.932      21366.794     -109635.73    
    942000   942000         0.3083559      0.29355281     357.41103      254.84516      102.56587      97.642043      298.08338     -584.81192     -90026.044     -88248.43       21341.601     -109590.03    
    943000   943000         0.30823919     0.28925624     356.07342      252.02379      104.04963      97.64172       299.13516      100.26053     -88019.843     -88324.599      21416.904     -109741.5     
    944000   944000         0.30829563     0.31714044     350.24931      255.33478      94.914529      97.637568      296.86659     -791.77723     -90792.151     -88385.438      21254.483     -109639.92    
    945000   945000         0.30849036     0.27658773     354.18395      245.28421      108.89974      97.637842      298.81403     -910.38951     -91107.311     -88340.061      21393.912     -109733.97    
    946000   946000         0.30833921     0.32795678     340.49883      248.69735      91.801483      97.642201      298.38088      5.8091542     -88363.569     -88381.226      21362.9       -109744.13    
    947000   947000         0.3085502      0.28960766     355.55753      251.52251      104.03503      97.648098      296.3981       3.6722161     -88302.044     -88313.207      21220.941     -109534.15    
    948000   948000         0.30833325     0.33873407     332.86443      243.97613      88.888299      97.652441      295.32665     -710.59162     -90624.944     -88465.005      21144.23      -109609.24    
    949000   949000         0.30855886     0.27720938     361.7908       253.09868      108.69212      97.649035      299.96158      34.68652      -88188.862     -88294.296      21476.072     -109770.37    
    950000   950000         0.30834289     0.35734705     341.30926      257.04651      84.262749      97.654417      294.8386      -160.1026      -88901.313     -88414.66       21109.287     -109523.95    
    951000   951000         0.30835356     0.34207223     346.9218       258.89804      88.023758      97.649215      296.32765     -970.74286     -91303.539     -88352.836      21215.897     -109568.73    
    952000   952000         0.30864815     0.26543587     358.29633      244.7505       113.54583      97.648846      297.16518      187.31199     -87665.224     -88234.584      21275.861     -109510.44    
    953000   953000         0.30855127     0.34483205     346.45722      259.08327      87.373956      97.647759      298.53126     -738.02273     -90433.374     -88190.055      21373.667     -109563.72    
    954000   954000         0.30809684     0.43001308     320.84006      250.87882      69.96124       97.645429      294.7768       189.53408     -87853.353     -88429.468      21104.863     -109534.33    
    955000   955000         0.30833623     0.30707266     348.94594      250.90188      98.044062      97.642274      296.72001     -394.77718     -89519.34      -88319.362      21243.988     -109563.35    
    956000   956000         0.30820753     0.41719417     337.09187      264.95988      72.131991      97.638905      298.28941      289.57545     -87431.679     -88311.882      21356.351     -109668.23    
    957000   957000         0.30833281     0.28845048     352.67294      248.30791      104.36503      97.635227      297.73821      282.17863     -87492.181     -88349.901      21316.888     -109666.79    
    958000   958000         0.30881069     0.27934067     349.94396      242.00887      107.93509      97.634768      297.56676      226.30423     -87628.817     -88316.699      21304.612     -109621.31    
    959000   959000         0.30831583     0.32938136     347.45975      256.07189      91.387854      97.631886      296.57268      451.50451     -87053.924     -88426.333      21233.44      -109659.77    
    960000   960000         0.30813668     0.31059654     343.38373      246.52536      96.858366      97.631589      296.04961      33.474664     -88489.652     -88591.403      21195.99      -109787.39    
    961000   961000         0.3087323      0.28696515     361.28982      256.24797      105.04185      97.635883      298.52286      367.93165     -87234.165     -88352.542      21373.065     -109725.61    
    962000   962000         0.30875924     0.32459132     350.42387      257.54952      92.874348      97.636615      297.61658      168.6807      -87816.294     -88329.022      21308.18      -109637.2     
    963000   963000         0.30882845     0.28742456     360.52197      255.61442      104.90756      97.636759      297.66295     -83.769844     -88517.041     -88262.411      21311.499     -109573.91    
    964000   964000         0.30864918     0.29915515     350.83864      250.10286      100.73577      97.637146      296.48544     -515.60737     -89832.179     -88264.921      21227.194     -109492.12    
    965000   965000         0.30856198     0.3420101      337.23086      249.14132      88.089543      97.638448      297.73274      230.5555      -87603         -88303.804      21316.496     -109620.3     
    966000   966000         0.30857633     0.33896792     346.86644      257.98255      88.88389       97.638036      298.33173     -242.23028     -89013.72      -88277.429      21359.382     -109636.81    
    967000   967000         0.30837726     0.28770183     359.51408      254.85675      104.65733      97.640482      297.25124     -714.49424     -90608.364     -88436.564      21282.023     -109718.59    
    968000   968000         0.30846942     0.28081951     354.39433      247.14715      107.24717      97.633987      297.23102      211.23338     -87816.551     -88458.623      21280.575     -109739.2     
    969000   969000         0.30817513     0.34360421     335.4066       247.8411       87.565502      97.632393      295.18781     -236.94359     -89337.857     -88617.635      21134.289     -109751.92    
    970000   970000         0.3081963      0.37682705     336.03929      256.18687      79.852417      97.634368      296.91843     -423.51767     -89739.62      -88452.281      21258.195     -109710.48    
    971000   971000         0.30826714     0.29102547     361.53816      258.11888      103.41928      97.634947      296.17944     -504.8244      -89986.533     -88452.052      21205.286     -109657.34    
    972000   972000         0.30834114     0.27580208     361.31651      252.16131      109.1552       97.636112      295.89499      335.87958     -87368.862     -88389.813      21184.92      -109574.73    
    973000   973000         0.30806587     0.3161759      346.24625      251.11645      95.129801      97.634153      296.43726     -750.94049     -90815.804     -88533.22       21223.745     -109756.96    
    974000   974000         0.30796766     0.39513934     334.80654      258.7111       76.095441      97.634611      296.17827     -814.76065     -90972.508     -88495.934      21205.202     -109701.14    
    975000   975000         0.30818644     0.29745566     350.53786      249.38615      101.15172      97.629702      297.42241     -284.457       -89343.757     -88479.111      21294.278     -109773.39    
    976000   976000         0.30833278     0.32996769     344.33938      253.11464      91.224743      97.625747      297.9878       152.95177     -87924.447     -88389.364      21334.757     -109724.12    
    977000   977000         0.30826233     0.29276726     351.87246      249.07663      102.79583      97.628711      298.2905      -133.93585     -88779.677     -88372.561      21356.429     -109728.99    
    978000   978000         0.30811631     0.3116145      350.67973      254.15015      96.529578      97.625525      296.96046     -1149.7417     -92087.871     -88593.078      21261.204     -109854.28    
    979000   979000         0.30839972     0.30351085     352.63166      253.4341       99.197553      97.625034      296.04924     -366.96368     -89562.475     -88447.04       21195.964     -109643       
    980000   980000         0.30805636     0.3006896      343.64406      243.62645      100.01761      97.625825      297.57543     -352.30943     -89777.851     -88706.959      21305.233     -110012.19    
    981000   981000         0.3085906      0.28774966     345.2788       240.58168      104.69712      97.626307      295.40919     -90.119385     -88865.788     -88591.858      21150.139     -109742       
    982000   982000         0.30846586     0.31066458     343.71         246.77533      96.93467       97.625614      297.45101     -241.10913     -89374.768     -88641.885      21296.325     -109938.21    
    983000   983000         0.30833451     0.35858391     335.44868      251.50727      83.941414      97.621381      295.6828       177.1445      -88169.18      -88707.634      21169.728     -109877.36    
    984000   984000         0.30838614     0.30922399     354.07599      256.71877      97.357214      97.621724      294.46009      486.17142     -87113.674     -88591.457      21082.187     -109673.64    
    985000   985000         0.30841244     0.30594826     344.29344      245.88454      98.40891       97.622637      294.83388     -309.05476     -89585.369     -88645.955      21108.949     -109754.9     
    986000   986000         0.30840426     0.31407884     343.62623      247.76676      95.859467      97.623262      294.96938      295.99254     -87697.214     -88596.923      21118.65      -109715.57    
    987000   987000         0.30838791     0.30661334     350.6572       252.46618      98.191019      97.625995      296.39784      312.26507     -87525.637     -88474.809      21220.922     -109695.73    
    988000   988000         0.30854138     0.28152849     352.16131      245.17025      106.99106      97.623959      296.40527     -784.08419     -90890.253     -88506.925      21221.455     -109728.38    
    989000   989000         0.30823328     0.30709954     354.37492      256.38609      97.988835      97.628414      295.65219     -48.528858     -88712.614     -88565.104      21167.537     -109732.64    
    990000   990000         0.3082564      0.31405979     344.66928      248.84481      95.82447       97.62851       294.18399     -581.47672     -90280.351     -88512.875      21062.42      -109575.29    
    991000   991000         0.30803885     0.34281467     336.01473      248.2937       87.721027      97.624228      295.12386     -218.87327     -89221.407     -88556.112      21129.711     -109685.82    
    992000   992000         0.30784188     0.36205188     335.8101       252.81028      82.999822      97.615833      296.10536      236.47907     -87801.347     -88520.157      21199.982     -109720.14    
    993000   993000         0.30804477     0.30376365     355.21101      256.22577      98.985237      97.609567      295.43761     -505.70251     -90032.216     -88495.066      21152.174     -109647.24    
    994000   994000         0.30807467     0.3281902      343.44313      251.81339      91.62974       97.612642      297.57067     -227.7233      -89233.293     -88541.098      21304.892     -109845.99    
    995000   995000         0.30807615     0.32387081     342.19023      249.33696      92.853275      97.61374       296.22501      180.22299     -87906.68      -88454.492      21208.549     -109663.04    
    996000   996000         0.30778335     0.27129194     356.52172      245.77684      110.74488      97.614745      295.35216     -27.709821     -88598.254     -88514.026      21146.056     -109660.08    
    997000   997000         0.30826167     0.33582933     344.71416      255.10917      89.604985      97.618306      298.00452     -4.0012451     -88449.526     -88437.364      21335.954     -109773.32    
    998000   998000         0.30835253     0.2916744      354.41381      251.21311      103.2007       97.618788      295.5215       122.36003     -87984.446     -88356.376      21158.18      -109514.56    
    999000   999000         0.30810218     0.33593743     340.94735      251.42015      89.527198      97.615462      297.61555     -546.07048     -90176.286     -88516.431      21308.106     -109824.54    
   1000000   1000000        0.30811805     0.32375716     347.7052       254.80349      92.901704      97.617104      294.86243     -456.81684     -90023.18      -88634.624      21110.993     -109745.62    
   1001000   1001000        0.30814606     0.3069344      352.23336      254.23816      97.995199      97.609871      296.03653     -664.75303     -90560.079     -88539.473      21195.054     -109734.53    
   1002000   1002000        0.30822541     0.30823886     345.16408      247.55898      97.605099      97.609356      295.86317     -1057.7128     -91675.595     -88460.536      21182.642     -109643.18    
   1003000   1003000        0.3081891      0.26919874     357.86727      246.11489      111.75237      97.614086      296.69158      35.393445     -88384.999     -88492.582      21241.953     -109734.54    
   1004000   1004000        0.30792074     0.3861739      338.91195      261.07612      77.835838      97.616578      296.32288     -41.073779     -88629.666     -88504.816      21215.555     -109720.37    
   1005000   1005000        0.30804882     0.30752984     356.76344      258.9841       97.779346      97.614616      297.88863     -893.11591     -91212.823     -88498.078      21327.657     -109825.74    
   1006000   1006000        0.30779738     0.27940944     356.33798      248.80616      107.53181      97.614227      295.99879     -544.44438     -90237.492     -88582.58       21192.352     -109774.93    
   1007000   1007000        0.30832033     0.31261674     342.4075       246.13491      96.272588      97.614135      295.29656     -350.01757     -89565.887     -88501.962      21142.075     -109644.04    
   1008000   1008000        0.30823009     0.34814065     329.64004      243.21908      86.420962      97.61101       298.37456     -124.42002     -88873.592     -88495.401      21362.448     -109857.85    
   1009000   1009000        0.30828285     0.31510981     346.10581      250.60681      95.499007      97.613841      295.33717     -1063.8324     -91656.45      -88422.789      21144.983     -109567.77    
   1010000   1010000        0.30816869     0.29252619     353.81976      250.9885       102.83126      97.611592      297.05037     -678.61956     -90308.709     -88245.955      21267.641     -109513.6     
   1011000   1011000        0.30823318     0.32075427     350.65281      256.85929      93.793518      97.603612      299.80735     -1753.0441     -93551.449     -88222.837      21465.03      -109687.87    
   1012000   1012000        0.30850425     0.29351948     360.64047      258.05547      102.585        97.602208      298.72128     -186.85436     -88733.416     -88165.447      21387.272     -109552.72    
   1013000   1013000        0.3083327      0.25837521     357.14603      240.67744      116.46859      97.597808      298.436       -544.97977     -90067.875     -88411.336      21366.847     -109778.18    
   1014000   1014000        0.30843121     0.27734004     353.60874      245.0695       108.53924      97.598024      296.64008     -920.8107      -91263.75      -88464.823      21238.266     -109703.09    
   1015000   1015000        0.30862757     0.28648068     347.79462      242.65163      105.143        97.59801       295.35301     -221.32234     -89140.371     -88467.632      21146.117     -109613.75    
   1016000   1016000        0.3083529      0.29697861     350.79107      249.45127      101.33981      97.60166       297.76121     -339.88461     -89605.358     -88572.233      21318.534     -109890.77    
   1017000   1017000        0.30847245     0.35962437     335.95152      252.23351      83.71801       97.600405      297.29808      384.7227      -87278.009     -88447.425      21285.376     -109732.8     
   1018000   1018000        0.30838706     0.29748372     349.57613      248.40166      101.17447      97.597341      297.67657      246.14629     -87586.419     -88334.613      21312.474     -109647.09    
   1019000   1019000        0.30799567     0.31475462     356.15221      260.65164      95.500572      97.596329      300.20451      866.90002     -85723.318     -88358.377      21493.465     -109851.84    
   1020000   1020000        0.30792184     0.32150816     351.13889      257.67376      93.465127      97.589055      298.19525     -228.68821     -89156.819     -88461.691      21349.61      -109811.3     
   1021000   1021000        0.30842886     0.27385493     360.2091       250.30316      109.90594      97.585819      298.7902      -89.726439     -88429.099     -88156.363      21392.206     -109548.57    
Loop time of 16262.8 on 32 procs for 1000000 steps with 24020 atoms

Performance: 5.313 ns/day, 4.517 hours/ns, 61.490 timesteps/s, 1.477 Matom-step/s
99.8% CPU use with 32 MPI tasks x 1 OpenMP threads

MPI task timing breakdown:
Section |  min time  |  avg time  |  max time  |%varavg| %total
---------------------------------------------------------------
Pair    | 10133      | 11180      | 12752      | 602.1 | 68.75
Bond    | 321.07     | 341.58     | 395.32     | 104.7 |  2.10
Kspace  | 1762.8     | 3375.6     | 4440.9     |1126.0 | 20.76
Neigh   | 744.51     | 746.51     | 747.96     |   3.6 |  4.59
Comm    | 360.78     | 380.58     | 412.48     |  61.2 |  2.34
Output  | 0.183      | 0.19121    | 0.35685    |   6.8 |  0.00
Modify  | 188.64     | 202.79     | 216.94     |  59.6 |  1.25
Other   |            | 35.22      |            |       |  0.22

Nlocal:        750.625 ave         777 max         716 min
Histogram: 1 1 0 6 4 7 3 5 2 3
Nghost:        11322.1 ave       11422 max       11189 min
Histogram: 2 0 3 5 0 7 3 5 4 3
Neighs:         497055 ave      523765 max      459399 min
Histogram: 2 1 2 4 3 4 3 6 3 4

Total # of neighbors = 15905772
Ave neighs/atom = 662.18868
Ave special neighs/atom = 11.983347
Neighbor list builds = 37382
Dangerous builds = 0
Total wall time: 4:36:46
