LAMMPS (2 Aug 2023 - Development - patch_2Aug2023-439-g49f08e6231)
OMP_NUM_THREADS environment is not set. Defaulting to 1 thread. (src/comm.cpp:98)
  using 1 OpenMP thread(s) per MPI task
Reading data file ...
  orthogonal box = (-25.800016 -24.079824 -155.73635) to (25.800016 24.079824 155.73635)
  2 by 2 by 8 MPI processor grid
  reading atoms ...
  82020 atoms
  reading velocities ...
  82020 velocities
  scanning bonds ...
  4 = max bonds/atom
  scanning angles ...
  6 = max angles/atom
  scanning dihedrals ...
  15 = max dihedrals/atom
  scanning impropers ...
  1 = max impropers/atom
  reading bonds ...
  84010 bonds
  reading angles ...
  150000 angles
  reading dihedrals ...
  219910 dihedrals
  reading impropers ...
  6000 impropers
Finding 1-2 1-3 1-4 neighbors ...
  special bond factors lj:    0        0        0.5     
  special bond factors coul:  0        0        0.8333333333333334
     4 = max # of 1-2 neighbors
    11 = max # of 1-3 neighbors
    22 = max # of 1-4 neighbors
    26 = max # of special neighbors
  special bonds CPU = 0.081 seconds
  read_data CPU = 1.236 seconds
DEBUG: -155.73634716013 -140.162712444117 0 15.5736347160131
PPPM initialization ...
  using 12-bit tables for long-range coulomb (src/kspace.cpp:342)
  G vector (1/distance) = 0.27316341
  grid = 60 60 225
  stencil order = 5
  estimated absolute RMS force accuracy = 0.00037618852
  estimated relative force accuracy = 1.1328806e-06
  using double precision FFTW3
  3d grid and FFT values/proc = 47915 28800
Generated 120 of 120 mixed pair_coeff terms from arithmetic mixing rule
Neighbor list info ...
  update: every = 1 steps, delay = 0 steps, check = yes
  max neighbors/atom: 2000, page size: 100000
  master list distance cutoff = 14
  ghost atom cutoff = 14
  binsize = 7, bins = 8 7 45
  1 neighbor lists, perpetual/occasional/extra = 1 0 0
  (1) pair lj/charmm/coul/long, perpetual
      attributes: half, newton on
      pair build: half/bin/newton
      stencil: half/bin/3d
      bin: standard
Setting up Verlet run ...
  Unit style    : real
  Current step  : 0
  Time step     : 1
Per MPI rank memory allocation (min/avg/max) = 39.81 | 40.44 | 41.45 Mbytes
   Step          Time           Temp         Temp_hot      Temp_cold        Press         Enthalpy        TotEng         KinEng         PotEng    
         0   0              300.41615      305.37885      302.77145      42.831017     -571123.67     -571607.16      73446.659     -645053.82    
      1000   1000           299.49981      305.5907       296.60178      1.2905042     -571587.4      -571601.97      73222.629     -644824.6     
      2000   2000           300.56516      307.2171       304.96085     -464.25997     -576854.99     -571614.28      73483.09      -645097.37    
      3000   3000           300.4289       305.85209      297.03768     -11.421934     -571729.31     -571600.38      73449.777     -645050.15    
      4000   4000           300.33842      306.51433      298.05931     -42.000571     -572077.46     -571603.35      73427.657     -645031.01    
      5000   5000           300.34401      308.81393      301.26498      15.245438     -571436.74     -571608.83      73429.022     -645037.85    
      6000   6000           299.37306      299.47992      296.38903     -285.02193     -574806.31     -571588.89      73191.642     -644780.54    
      7000   7000           300.51432      303.27302      307.14617      181.1694      -569556.51     -571601.61      73470.661     -645072.27    
      8000   8000           299.59566      306.24484      302.55459      97.488514     -570490.78     -571591.26      73246.063     -644837.32    
      9000   9000           299.65547      299.6656       306.6323       183.10649     -569527.58     -571594.54      73260.686     -644855.23    
     10000   10000          300.62632      304.80019      298.82967     -125.15272     -573017.01     -571604.25      73498.043     -645102.29    
Loop time of 425.431 on 32 procs for 10000 steps with 82020 atoms

Performance: 2.031 ns/day, 11.818 hours/ns, 23.506 timesteps/s, 1.928 Matom-step/s
99.5% CPU use with 32 MPI tasks x 1 OpenMP threads

MPI task timing breakdown:
Section |  min time  |  avg time  |  max time  |%varavg| %total
---------------------------------------------------------------
Pair    | 196.72     | 218.81     | 254.74     | 104.4 | 51.43
Bond    | 4.4105     | 4.8294     | 6.3061     |  15.1 |  1.14
Kspace  | 128.4      | 161.73     | 186.08     | 123.4 | 38.02
Neigh   | 19.997     | 20.364     | 20.553     |   2.7 |  4.79
Comm    | 9.3611     | 12.97      | 17.312     |  69.3 |  3.05
Output  | 0.0028144  | 0.0054046  | 0.0069026  |   1.6 |  0.00
Modify  | 0.12716    | 0.16445    | 0.32973    |  10.1 |  0.04
Other   |            | 6.554      |            |       |  1.54

Nlocal:        2563.12 ave        2718 max        2410 min
Histogram: 1 4 4 3 6 4 1 3 4 2
Nghost:        17320.7 ave       18197 max       16810 min
Histogram: 8 6 5 1 2 2 0 0 4 4
Neighs:    1.56168e+06 ave 1.78154e+06 max 1.41866e+06 min
Histogram: 3 3 9 3 5 2 3 0 2 2

Total # of neighbors = 49973640
Ave neighs/atom = 609.28603
Ave special neighs/atom = 10.922214
Neighbor list builds = 518
Dangerous builds = 0
WARNING: New thermo_style command, previous thermo_modify settings will be lost (src/output.cpp:904)
PPPM initialization ...
  using 12-bit tables for long-range coulomb (src/kspace.cpp:342)
  G vector (1/distance) = 0.27316341
  grid = 60 60 225
  stencil order = 5
  estimated absolute RMS force accuracy = 0.00037618852
  estimated relative force accuracy = 1.1328806e-06
  using double precision FFTW3
  3d grid and FFT values/proc = 47915 28800
Generated 120 of 120 mixed pair_coeff terms from arithmetic mixing rule
Setting up Verlet run ...
  Unit style    : real
  Current step  : 10000
  Time step     : 1
Per MPI rank memory allocation (min/avg/max) = 40.91 | 41.57 | 42.45 Mbytes
   Step          Time          kappa        kappa_inst      Temp_hot      Temp_cold      dTemp_step       dTemp           Temp          Press         Enthalpy        TotEng         KinEng         PotEng    
     10000   10000          0              0              304.60261      298.82967      5.7729413      0              300.62632     -125.15272     -573017.01     -571604.25      73498.043     -645102.29    
     11000   11000          0              0              302.15768      297.23284      4.9248319      0              300.89594     -49.139548     -572156.98     -571602.28      73563.961     -645166.24    
     12000   12000          0              0              302.44128      300.89822      1.5430606      0              301.46011     -31.309388     -571976.18     -571622.75      73701.89      -645324.64    
     13000   13000          0              0              301.21784      295.4934       5.7244492      0              298.81054      163.32348     -569751.07     -571594.72      73054.116     -644648.84    
     14000   14000          0              0              299.36273      292.24483      7.1178948      0              300.55703      120.6641      -570243.78     -571605.87      73481.102     -645086.97    
     15000   15000          0              0              304.84582      299.92247      4.9233522      0              299.76771     -52.571933     -572192.71     -571599.26      73288.127     -644887.38    
     16000   16000          0              0              305.1868       296.17921      9.0075881      0              298.83866     -31.48568      -571955.28     -571599.86      73060.991     -644660.85    
     17000   17000          0              0              305.67197      291.87666      13.79531       0              299.35508      124.4103      -570188.39     -571592.77      73187.246     -644780.01    
     18000   18000          0              0              309.02374      296.00849      13.015256      0              300.38087     -317.98953     -575206.88     -571617.31      73438.034     -645055.34    
     19000   19000          0              0              311.92709      289.93722      21.989866      0              299.86676     -183.3483      -573667.27     -571597.58      73312.344     -644909.93    
     20000   20000          0              0              313.23974      293.95191      19.287831      20.328869      299.99852      244.06549     -568840.35     -571595.44      73344.555     -644940       
Loop time of 428.088 on 32 procs for 10000 steps with 82020 atoms

Performance: 2.018 ns/day, 11.891 hours/ns, 23.360 timesteps/s, 1.916 Matom-step/s
99.5% CPU use with 32 MPI tasks x 1 OpenMP threads

MPI task timing breakdown:
Section |  min time  |  avg time  |  max time  |%varavg| %total
---------------------------------------------------------------
Pair    | 191.95     | 216.64     | 257.57     | 107.4 | 50.61
Bond    | 4.4199     | 4.8339     | 6.3952     |  15.9 |  1.13
Kspace  | 127.03     | 165.34     | 192.31     | 124.7 | 38.62
Neigh   | 19.755     | 20.132     | 20.303     |   2.8 |  4.70
Comm    | 9.4103     | 13.004     | 17.331     |  68.8 |  3.04
Output  | 0.0021959  | 0.0023378  | 0.0026429  |   0.2 |  0.00
Modify  | 1.978      | 7.3414     | 12.424     | 130.4 |  1.71
Other   |            | 0.7943     |            |       |  0.19

Nlocal:        2563.12 ave        2721 max        2427 min
Histogram: 4 1 5 6 3 3 2 3 4 1
Nghost:          17326 ave       18218 max       16800 min
Histogram: 7 8 4 1 4 0 0 1 3 4
Neighs:     1.5615e+06 ave 1.78424e+06 max 1.39801e+06 min
Histogram: 1 3 9 3 7 2 3 0 1 3

Total # of neighbors = 49967898
Ave neighs/atom = 609.21602
Ave special neighs/atom = 10.922214
Neighbor list builds = 512
Dangerous builds = 0
PPPM initialization ...
  using 12-bit tables for long-range coulomb (src/kspace.cpp:342)
  G vector (1/distance) = 0.27316341
  grid = 60 60 225
  stencil order = 5
  estimated absolute RMS force accuracy = 0.00037618852
  estimated relative force accuracy = 1.1328806e-06
  using double precision FFTW3
  3d grid and FFT values/proc = 47915 28800
Generated 120 of 120 mixed pair_coeff terms from arithmetic mixing rule
Setting up Verlet run ...
  Unit style    : real
  Current step  : 20000
  Time step     : 1
Per MPI rank memory allocation (min/avg/max) = 41.41 | 42.07 | 42.96 Mbytes
   Step          Time          kappa        kappa_inst      Temp_hot      Temp_cold      dTemp_step       dTemp           Temp          Press         Enthalpy        TotEng         KinEng         PotEng    
     20000   20000          5.3546912      5.594696       313.4087       293.95191      19.456788      20.328869      299.99852      244.0655      -568840.35     -571595.44      73344.555     -644940       
     21000   21000          4.9067412      4.7514677      317.37028      294.46055      22.909724      22.184747      300.94439     -197.29555     -573836.01     -571608.87      73575.806     -645184.68    
     22000   22000          4.6760964      4.2057451      319.73641      293.854        25.882409      23.278993      300.67636     -545.93243     -577769.87     -571607.21      73510.276     -645117.49    
     23000   23000          4.4537754      3.208624       320.68607      286.76037      33.9257        24.44102       299.58891      128.86716     -570138.87     -571593.56      73244.413     -644837.98    
     24000   24000          4.1887858      3.1785881      320.92075      286.67447      34.246279      25.9872        300.13296      83.03225      -570663.67     -571600.96      73377.425     -644978.39    
     25000   25000          4.0334554      3.1704707      317.62915      283.29519      34.33396       26.98798       299.77454     -185.60291     -573692.94     -571597.8       73289.797     -644887.6     
     26000   26000          3.8810423      2.3454406      325.59583      279.18458      46.411243      28.04783       299.63132     -43.432284     -572099.26     -571608.99      73254.782     -644863.77    
     27000   27000          3.7161273      3.2456936      320.87884      287.34061      33.538229      29.292542      299.626       -93.382127     -572652.82     -571598.69      73253.482     -644852.18    
     28000   28000          3.5939452      2.4291917      327.24875      282.43762      44.811126      30.28839       299.95179     -147.79027     -573276.16     -571607.86      73333.133     -644940.99    
     29000   29000          3.4884852      2.6193533      322.16036      280.60246      41.557898      31.204035      300.02211     -283.1042      -574803.24     -571607.47      73350.323     -644957.8     
     30000   30000          3.4072832      3.4964936      310.94371      279.81114      31.132566      31.947686      300.24986      302.0738      -568198.8      -571608.7       73406.005     -645014.71    
     31000   31000          3.3361814      2.4518437      323.80366      279.40654      44.397126      32.628566      299.64765      338.84543     -567772.59     -571597.59      73258.774     -644856.36    
     32000   32000          3.2782996      2.9197524      317.93342      280.65122      37.282207      33.204657      298.75534      417.26503     -566885.75     -571595.97      73040.62      -644636.59    
     33000   33000          3.2367135      2.2847093      322.96005      275.31512      47.644931      33.631279      300.54647     -7.3831945     -571687.9      -571604.56      73478.52      -645083.08    
     34000   34000          3.1839688      2.6793432      320.32994      279.70251      40.627426      34.188405      299.08972      401.17367     -567080.29     -571608.87      73122.37      -644731.24    
     35000   35000          3.1302688      2.5308039      320.15074      277.13879      43.011952      34.774909      298.69658     -208.44617     -573949.66     -571596.65      73026.254     -644622.9     
     36000   36000          3.0620017      2.2933428      323.24505      275.77948      47.465566      35.550214      300.19885      251.61769     -568770.2      -571610.54      73393.534     -645004.07    
     37000   37000          3.0005353      2.2356583      325.80078      277.11051      48.690274      36.278466      301.12713      317.96021     -568006.68     -571595.92      73620.481     -645216.4     
     38000   38000          2.93375        2.3647949      322.89289      276.86149      46.031399      37.104326      298.75095     -176.67933     -573585.56     -571591.15      73039.547     -644630.7     
     39000   39000          2.8766145      2.2111893      327.68194      278.45286      49.229081      37.841294      300.58379      144.7099      -569968.67     -571602.2       73487.644     -645089.85    
     40000   40000          2.8198159      1.9599699      325.01536      269.47634      55.539024      38.603519      299.60243      100.38002     -570466.94     -571600.06      73247.718     -644847.78    
     41000   41000          2.7724506      2.0423186      326.61443      273.31481      53.299625      39.263032      300.07577      167.03253     -569713.38     -571598.9       73363.442     -644962.34    
     42000   42000          2.7227189      1.7657596      332.44886      270.80127      61.647584      39.980189      300.34743      29.771811     -571261.59     -571597.66      73429.857     -645027.52    
     43000   43000          2.6793984      1.9925112      326.71064      272.07866      54.631972      40.626587      300.28878      83.8723       -570659.85     -571606.63      73415.52      -645022.15    
     44000   44000          2.6373378      2.1649909      326.6078       276.32823      50.279573      41.274506      298.82113     -242.4902      -574343.73     -571606.42      73056.705     -644663.13    
     45000   45000          2.5994351      1.718196       336.01159      272.65746      63.354131      41.876336      300.40183     -8.9142375     -571702.06     -571601.43      73443.157     -645044.59    
     46000   46000          2.5607784      1.7842157      331.14448      270.13459      61.009897      42.508486      300.62831     -316.01983     -575169.69     -571602.36      73498.529     -645100.89    
     47000   47000          2.5164284      1.6391824      337.13321      270.72522      66.407994      43.257665      299.99824     -70.785718     -572404.21     -571605.16      73344.487     -644949.64    
     48000   48000          2.4797623      1.811553       332.30488      272.21566      60.089224      43.897279      300.90841      290.98534     -568327.51     -571612.25      73567.008     -645179.26    
     49000   49000          2.4448971      1.8915077      327.25383      269.7046       57.549231      44.523271      300.37807      270.96051     -568553.71     -571612.4       73437.35      -645049.75    
     50000   50000          2.4102333      1.8125511      332.93389      272.87776      60.056136      45.163601      299.86508     -413.28151     -576271.12     -571605.87      73311.931     -644917.8     
     51000   51000          2.3757233      1.5227512      339.09362      267.608        71.485621      45.819653      299.40498     -257.64311     -574497.34     -571588.98      73199.445     -644788.42    
     52000   52000          2.3431011      1.8838969      327.14466      269.36293      57.781726      46.457583      300.0756      -348.6207      -575542.6      -571607.26      73363.4       -644970.66    
     53000   53000          2.312982       1.7447451      333.25313      270.86303      62.390096      47.062543      300.47566      204.91836     -569300.06     -571613.25      73461.209     -645074.46    
     54000   54000          2.2806962      1.7145453      339.50303      276.014        63.489029      47.728766      300.56599     -8.7002769     -571699.81     -571601.6       73483.294     -645084.89    
     55000   55000          2.2519274      1.4091362      341.90433      264.65501      77.249322      48.338511      300.01151     -299.98726     -574988.24     -571601.89      73347.731     -644949.62    
     56000   56000          2.2244684      1.6593313      335.63196      270.03034      65.601617      48.935203      298.9464      -642.59761     -578843.6      -571589.76      73087.329     -644677.09    
     57000   57000          2.200051       1.4636803      341.51026      267.13964      74.37062       49.478315      300.48248     -154.02647     -573353.06     -571614.36      73462.876     -645077.23    
     58000   58000          2.1757138      1.4039312      344.81827      267.28256      77.535718      50.031771      299.39188      291.59927     -568314.67     -571606.33      73196.242     -644802.57    
     59000   59000          2.1514333      1.4953184      340.17869      267.38161      72.797083      50.596416      300.04018      291.25537     -568314.86     -571602.64      73354.74      -644957.38    
     60000   60000          2.1302009      1.3814641      344.95103      266.15433      78.796704      51.100727      300.37667     -42.029478     -572078.76     -571604.32      73437.006     -645041.33    
     61000   61000          2.1102855      1.5973494      336.7306       268.58345      68.147155      51.582979      299.41467      133.93789     -570083.14     -571595.07      73201.815     -644796.89    
     62000   62000          2.0919505      1.7690293      335.59848      274.06483      61.533644      52.035083      299.70645      293.08779     -568297.18     -571605.64      73273.149     -644878.79    
     63000   63000          2.0736871      1.5089334      338.16785      266.02761      72.14024       52.493365      299.88957      370.66445     -567424.5      -571608.67      73317.92      -644926.59    
     64000   64000          2.0555332      1.4805543      343.84521      270.32219      73.523015      52.956973      300.73        -100.15752     -572732.65     -571602.04      73523.391     -645125.43    
     65000   65000          2.0356436      1.6089756      337.87842      270.22369      67.654735      53.474397      299.73166     -229.08843     -574192.11     -571606.09      73279.313     -644885.4     
     66000   66000          2.0177564      1.4866648      337.87429      264.65347      73.220822      53.948443      299.67819     -130.82111     -573075.5      -571598.75      73266.24      -644864.99    
     67000   67000          2.0014363      1.3710739      344.19697      264.80313      79.393837      54.388349      300.15049     -253.40746     -574465.58     -571605.03      73381.709     -644986.74    
     68000   68000          1.9841513      1.304814       345.77826      262.35272      83.425541      54.862156      300.28608     -438.98359     -576562.35     -571606.97      73414.86      -645021.83    
     69000   69000          1.9662293      1.3446157      349.11232      268.15624      80.956082      55.362219      301.59896      393.20815     -567170        -571608.66      73735.836     -645344.49    
     70000   70000          1.9498987      1.4100155      345.83122      268.63007      77.201147      55.825882      300.42616     -176.82716     -573598.38     -571602.3       73449.107     -645051.41    
     71000   71000          1.933979       1.3351908      343.20985      261.68231      81.527538      56.285418      299.75806     -222.78652     -574125.15     -571610.26      73285.769     -644896.03    
     72000   72000          1.9172347      1.3037462      346.45989      262.96602      83.49387       56.776989      299.92225     -8.9038404     -571710.87     -571610.36      73325.91      -644936.27    
     73000   73000          1.9019045      1.3370866      342.67696      261.26502      81.411941      57.234638      300.32765      153.87799     -569859.64     -571596.67      73425.022     -645021.69    
     74000   74000          1.889285       1.4823549      339.62678      266.19307      73.433706      57.616937      299.27188      231.8652      -568980.05     -571597.42      73166.905     -644764.32    
     75000   75000          1.879022       1.4310823      340.69434      264.62966      76.064676      57.931635      299.85506     -32.337502     -571949.74     -571584.7       73309.484     -644894.19    
     76000   76000          1.8677266      1.6325242      336.61619      269.93735      66.678838      58.281985      299.92488      53.083755     -571010.45     -571609.68      73326.552     -644936.23    
     77000   77000          1.8568956      1.556345       335.54459      265.60199      69.9426        58.621937      299.97922     -11.910947     -571740.11     -571605.66      73339.838     -644945.49    
     78000   78000          1.8438024      1.4416058      343.28669      267.77727      75.509418      59.038222      299.74957      336.64916     -567799.57     -571599.77      73283.692     -644883.46    
     79000   79000          1.8313416      1.2424297      352.14281      264.52835      87.614463      59.439931      300.309        483.79554     -566138.19     -571599.43      73420.464     -645019.89    
     80000   80000          1.8182077      1.2715076      350.55435      264.94352      85.610827      59.869296      299.72065      281.58538     -568426.44     -571605.07      73276.621     -644881.69    
     81000   81000          1.8051149      1.3418699      346.22551      265.10378      81.121734      60.303539      301.06575      388.43413     -567220.4      -571605.17      73605.477     -645210.65    
     82000   82000          1.7931861      1.302767       345.18983      261.63321      83.556629      60.704696      300.36575     -264.00861     -574585.3      -571605.08      73434.337     -645039.42    
     83000   83000          1.7802638      1.2292799      351.10934      262.55765      88.551689      61.145327      299.76359      346.56994     -567694.81     -571607         73287.119     -644894.12    
     84000   84000          1.7684174      1.3949379      344.15944      266.12384      78.0356        61.554933      299.45423     -120.15049     -572961.97     -571605.68      73211.485     -644817.16    
     85000   85000          1.7582052      1.3734964      346.67896      267.42515      79.253806      61.912464      299.68282      534.83109     -565561.27     -571598.62      73267.374     -644865.99    
     86000   86000          1.7473082      1.2425753      347.96991      260.36571      87.604201      62.298578      300.38758      434.2722      -566691.52     -571593.72      73439.674     -645033.4     
     87000   87000          1.7361324      1.1504108      356.75955      262.13699      94.622558      62.699606      300.1254      -32.293815     -571969.95     -571605.41      73375.576     -644980.98    
     88000   88000          1.7252118      1.2926066      347.19632      262.9829       84.213416      63.096495      300.04549     -176.63217     -573594.22     -571600.34      73356.039     -644956.38    
     89000   89000          1.7146176      1.2669873      347.51725      261.60098      85.916264      63.48635       300.38646      262.28045     -568635.7      -571596.41      73439.4       -645035.8     
     90000   90000          1.7039974      1.1418044      356.00631      260.67052      95.335783      63.882033      299.84343      771.08826     -562897.54     -571601.83      73306.639     -644908.47    
     91000   91000          1.6945077      1.1665536      349.84249      256.52932      93.31317       64.239788      300.1976       424.76232     -566804.62     -571599.48      73393.229     -644992.7     
     92000   92000          1.6852937      1.148646       349.53419      254.76626      94.767937      64.591006      299.90439     -154.5214      -573338.46     -571594.17      73321.543     -644915.71    
     93000   93000          1.6765797      1.1907322      351.55664      260.13825      91.418384      64.926718      299.50445      2.7260418     -571563.25     -571594.02      73223.765     -644817.79    
     94000   94000          1.6678655      1.2769533      346.51407      261.26834      85.245731      65.265944      299.56506     -130.27327     -573075.41     -571604.84      73238.582     -644843.43    
     95000   95000          1.659962       1.1363382      353.63486      257.84048      95.79438       65.57669       300.28391     -29.390361     -571942.4      -571610.64      73414.329     -645024.97    
     96000   96000          1.6512712      1.1455927      356.65108      261.63056      95.020519      65.921828      300.70758      649.51909     -564274.73     -571606.7       73517.909     -645124.61    
     97000   97000          1.6428728      1.1314957      353.75799      257.55364      96.204354      66.258822      299.71719     -17.295782     -571792.15     -571596.91      73275.776     -644872.69    
     98000   98000          1.6344461      1.1836804      353.17845      261.21543      91.963015      66.600432      298.69119      219.24618     -569119.85     -571594.77      73024.935     -644619.71    
     99000   99000          1.6262787      1.0607162      360.37401      257.75012      102.62388      66.934906      299.99867      343.2732      -567734.7      -571609.68      73344.593     -644954.27    
    100000   100000         1.6180375      1.1562108      354.61358      260.46568      94.147896      67.275831      300.48257     -79.500588     -572505.12     -571607.69      73462.899     -645070.59    
    101000   101000         1.6097808      1.0297332      354.96074      249.24906      105.71167      67.620894      299.2148       168.88116     -569687.46     -571593.85      73152.949     -644746.79    
    102000   102000         1.6016784      1.1294884      350.6759       254.30057      96.37533       67.962967      299.61268     -2.0843884     -571630.24     -571606.71      73250.225     -644856.93    
    103000   103000         1.5933061      1.0771997      357.03072      255.9772       101.05352      68.320088      301.60977      138.85815     -570048.7      -571616.17      73738.48      -645354.65    
    104000   104000         1.5849466      1.1203207      355.68653      258.52255      97.163978      68.680429      300.62205     -37.52991      -572026.38     -571602.74      73496.998     -645099.73    
    105000   105000         1.5767266      1.057595       357.10387      254.17712      102.92675      69.038485      300.23222     -208.63533     -573957.87     -571602.73      73401.691     -645004.42    
    106000   106000         1.5683863      1.0743273      356.19073      254.86702      101.3237       69.405614      300.26978      37.999834     -571183.37     -571612.32      73410.875     -645023.2     
    107000   107000         1.5599049      0.98488011     363.93786      253.4119       110.52596      69.782983      300.6234      -385.31832     -575958.84     -571609.25      73497.329     -645106.58    
    108000   108000         1.5515505      1.0295106      356.09021      250.35568      105.73453      70.15873       300.86685     -104.41189     -572786.43     -571607.8       73556.848     -645164.65    
    109000   109000         1.5431017      1.037617       356.37564      251.46716      104.90848      70.542866      299.47804     -342.06231     -575450.61     -571589.3       73217.308     -644806.61    
    110000   110000         1.5354672      1.0181076      360.89654      253.97777      106.91877      70.893612      299.21077     -55.412927     -572230.71     -571605.2       73151.964     -644757.16    
    111000   111000         1.5281105      1.1473835      349.4733       254.60109      94.872212      71.234912      299.34657     -118.37815     -572935.12     -571598.83      73185.164     -644783.99    
    112000   112000         1.5220837      1.0205553      360.82771      254.16537      106.66233      71.51697       300.17166     -103.13563     -572767.62     -571603.39      73386.885     -644990.28    
    113000   113000         1.5148279      1.0072058      359.19595      251.11991      108.07604      71.859526      301.21254     -320.15837     -575228.43     -571614.39      73641.363     -645255.75    
    114000   114000         1.5069567      1.0838012      354.25973      253.82174      100.43799      72.234865      299.69326      3.6457467     -571553.09     -571594.25      73269.925     -644864.17    
    115000   115000         1.499648       1.0402163      354.60196      249.95564      104.64632      72.586909      300.56855     -169.43313     -573518.96     -571606.34      73483.918     -645090.26    
    116000   116000         1.4926836      1.058243       355.95996      253.09625      102.86372      72.925579      300.71361      212.69557     -569204.55     -571605.52      73519.382     -645124.9     
    117000   117000         1.4859854      1.0543377      354.0206       250.77587      103.24474      73.254295      299.63372     -171.08415     -573531.9      -571600.65      73255.367     -644856.02    
    118000   118000         1.4796808      1.0241293      356.18782      249.89771      106.29011      73.566417      299.45555      100.19914     -570469.5      -571600.58      73211.81      -644812.39    
    119000   119000         1.4729145      0.99298463     360.74864      251.12477      109.62387      73.904367      299.65084      269.05737     -568559        -571596.21      73259.553     -644855.76    
    120000   120000         1.4662138      0.97399053     363.56831      251.80663      111.76168      74.242118      300.44848     -80.803276     -572508.01     -571595.87      73454.563     -645050.44    
    121000   121000         1.4590162      1.0099028      359.68694      251.89953      107.78741      74.608368      300.05477      236.51533     -568935.09     -571604.95      73358.308     -644963.26    
    122000   122000         1.4519663      0.91164387     367.66712      248.26214      119.40498      74.970624      299.30849     -64.426867     -572331.48     -571604.21      73175.856     -644780.06    
    123000   123000         1.4446662      0.93196148     368.69179      251.88995      116.80184      75.349457      300.85171     -100.67895     -572753.59     -571617.1       73553.147     -645170.24    
    124000   124000         1.4377917      0.9724707      361.20761      249.27126      111.93634      75.709723      300.33329     -156.47807     -573369.05     -571602.68      73426.402     -645029.08    
    125000   125000         1.4306202      0.92721794     365.82486      248.42548      117.39938      76.089248      299.50247     -1.9559991     -571629.05     -571606.97      73223.28      -644830.24    
    126000   126000         1.4238295      0.93308167     365.60864      248.94702      116.66162      76.452143      299.92338      266.8815      -568590.68     -571603.32      73326.186     -644929.51    
    127000   127000         1.4178589      0.9720906      360.00177      248.02166      111.98011      76.774083      300.53574     -206.82507     -573942.33     -571607.62      73475.898     -645083.52    
    128000   128000         1.4117186      0.96373496     362.01321      249.06222      112.95099      77.108012      299.73079      33.099172     -571229.81     -571603.44      73279.101     -644882.54    
    129000   129000         1.4055466      0.94791398     361.88164      247.04546      114.83617      77.446606      300.30056     -303.04491     -575023.39     -571602.53      73418.399     -645020.93    
    130000   130000         1.399082       0.93058257     363.95463      246.97972      116.97491      77.804455      299.54451      511.87379     -565826.4      -571604.59      73233.558     -644838.15    
    131000   131000         1.3926895      0.88852342     365.7054       243.19336      122.51204      78.161584      300.61954      79.624188     -570710.55     -571609.37      73496.384     -645105.76    
    132000   132000         1.3864929      0.9725961      361.53027      249.60836      111.92191      78.510907      300.57225     -287.19808     -574847.36     -571605.38      73484.824     -645090.2     
    133000   133000         1.3801737      0.93278093     363.96291      247.26369      116.69923      78.870376      300.25915     -222.46742     -574119.5      -571608.21      73408.276     -645016.49    
    134000   134000         1.3735253      0.93737395     362.33078      246.20337      116.12742      79.252139      299.82047     -74.166048     -572439.25     -571602.04      73301.026     -644903.07    
    135000   135000         1.3672909      0.90761513     367.28668      247.35169      119.93499      79.613502      299.40243     -385.15721     -575946.32     -571598.55      73198.823     -644797.37    
    136000   136000         1.3612841      0.90872455     369.00263      249.21406      119.78857      79.964806      298.19852     -427.74087     -576409.72     -571581.25      72904.485     -644485.73    
    137000   137000         1.3553957      0.88644201     370.1911       247.3914       122.7997       80.312204      299.84573     -173.70496     -573559.45     -571598.61      73307.202     -644905.81    
    138000   138000         1.3499365      0.88399452     369.07753      245.93784      123.1397       80.636987      300.02117      211.13355     -569207.22     -571590.57      73350.093     -644940.66    
    139000   139000         1.3441399      0.89643163     363.86149      242.43024      121.43125      80.984733      299.43718      94.774768     -570532.19     -571602.04      73207.318     -644809.36    
    140000   140000         1.338564       0.90679915     365.69651      245.65359      120.04292      81.322085      299.50828     -296.0381      -574946.42     -571604.65      73224.7       -644829.35    
    141000   141000         1.3329371      0.8871812      367.71614      245.01875      122.69739      81.665378      300.84422      394.78415     -567154.12     -571610.57      73551.314     -645161.88    
    142000   142000         1.3273893      0.89700278     365.8192       244.46527      121.35393      82.006699      300.71355      77.21631      -570726.52     -571598.16      73519.369     -645117.53    
    143000   143000         1.3218303      0.85761671     368.1094       241.18229      126.92711      82.351584      300.41202      44.206778     -571106.88     -571605.9       73445.65      -645051.55    
    144000   144000         1.3165543      0.87281811     369.48164      244.76515      124.7165       82.6816        299.78722     -172.5365      -573555.11     -571607.46      73292.896     -644900.36    
    145000   145000         1.3114267      0.81024031     377.2982       242.9494       134.3488       83.00488       300.98368      463.71526     -566372.45     -571607.02      73585.412     -645192.43    
    146000   146000         1.3059566      0.85297798     372.68717      245.06979      127.61738      83.35255       300.08425     -111.87299     -572867.06     -571604.21      73365.516     -644969.72    
    147000   147000         1.3007755      0.86532273     371.4875       245.69072      125.79678      83.684553      301.71051     -229.21131     -574193.18     -571605.77      73763.109     -645368.88    
    148000   148000         1.2957037      0.86545116     370.8817       245.10359      125.77811      84.01212       300.57092      225.7152      -569055.92     -571603.86      73484.497     -645088.36    
    149000   149000         1.2912073      0.90504314     366.11178      245.83595      120.27583      84.304677      299.70018     -241.74225     -574329.21     -571600.34      73271.617     -644871.96    
    150000   150000         1.2869036      0.96997772     358.90719      246.68315      112.22404      84.586614      299.88673      9.3665779     -571500.96     -571606.69      73317.225     -644923.92    
    151000   151000         1.282684       0.92431016     363.43834      245.66963      117.76871      84.86487       300.20984      292.20954     -568305.69     -571604.24      73396.22      -645000.46    
    152000   152000         1.2787022      0.89510466     366.27133      244.66006      121.61127      85.129135      299.40263      148.65698     -569921.84     -571599.93      73198.87      -644798.8     
    153000   153000         1.274746       0.92772953     360.27586      242.94121      117.33465      85.393337      299.57395     -18.679855     -571803.15     -571592.29      73240.756     -644833.05    
    154000   154000         1.2707981      0.94664525     360.57855      245.58846      114.99008      85.658626      299.9605       35.085998     -571200.44     -571596.5       73335.26      -644931.76    
    155000   155000         1.2667776      0.89231737     368.80144      246.8103       121.99114      85.930487      299.30637      103.9438      -570424.25     -571597.6       73175.337     -644772.94    
    156000   156000         1.2625983      0.82673463     372.59845      240.93006      131.66839      86.214923      300.459        402.34618     -567063.67     -571605.48      73457.137     -645062.62    
    157000   157000         1.2585011      0.83547891     373.01176      242.72143      130.29032      86.495608      300.74098      288.74001     -568360.45     -571619.83      73526.074     -645145.91    
    158000   158000         1.2546563      0.91229035     365.59736      246.277        119.32036      86.760667      300.94515     -12.244551     -571741.04     -571602.82      73575.992     -645178.81    
    159000   159000         1.2508431      0.83337813     370.33649      239.71773      130.61876      87.025153      299.86927     -82.928994     -572533.3      -571597.17      73312.957     -644910.13    
    160000   160000         1.2470309      0.87600745     371.43993      247.1775       124.26243      87.291195      300.52905      18.371877     -571406.61     -571613.99      73474.261     -645088.25    
    161000   161000         1.2431835      0.8451459      370.40042      241.60039      128.80003      87.561339      300.12039      480.94823     -566164.61     -571593.71      73374.352     -644968.06    
    162000   162000         1.2392333      0.8474504      371.78383      243.33405      128.44978      87.840451      300.09866      241.10147     -568872.42     -571594.05      73369.039     -644963.09    
    163000   163000         1.2352913      0.81518495     374.9451       241.41121      133.53389      88.120767      299.93585     -91.240593     -572628.77     -571598.81      73329.235     -644928.05    
    164000   164000         1.2312437      0.83996937     369.46139      239.86759      129.59379      88.410454      300.28439      566.59281     -565204.33     -571600.2       73414.445     -645014.65    
    165000   165000         1.2276313      0.89922998     361.75987      240.70651      121.05337      88.670606      298.83157      258.5362      -568684.24     -571602.68      73059.257     -644661.93    
    166000   166000         1.2239932      0.85470397     365.25396      237.89429      127.35967      88.934166      300.3107      -183.94098     -573688.07     -571611.69      73420.879     -645032.57    
    167000   167000         1.2204725      0.84788699     369.80029      241.41665      128.38364      89.190717      301.29037      279.51409     -568456.27     -571611.52      73660.393     -645271.91    
    168000   168000         1.2166304      0.84011799     368.13006      238.5592       129.57087      89.47238       300.14309     -490.89463     -577141.31     -571599.93      73379.901     -644979.83    
    169000   169000         1.2130806      0.85022709     368.09954      240.06926      128.03028      89.734195      300.2349       23.576331     -571337.57     -571603.71      73402.346     -645006.05    
    170000   170000         1.2093326      0.82265247     372.1465       239.82475      132.32175      90.012306      300.04975      122.25676     -570218.34     -571598.41      73357.08      -644955.49    
    171000   171000         1.2056055      0.83737796     370.51952      240.52468      129.99484      90.290578      301.33034      495.49322     -566011.15     -571604.43      73670.163     -645274.59    
    172000   172000         1.2020068      0.79312617     374.35667      237.10887      137.24779      90.560898      299.30981      13.652121     -571441.75     -571595.86      73176.178     -644772.04    
    173000   173000         1.1982         0.78378232     376.73375      237.84976      138.88399      90.848615      300.42265      150.13443     -569908.5      -571603.26      73448.248     -645051.51    
    174000   174000         1.1944025      0.79931406     377.07703      240.89175      136.18529      91.137466      300.24791     -382.02346     -575921.45     -571609.05      73405.527     -645014.58    
    175000   175000         1.1907758      0.82836818     369.85334      238.44461      131.40874      91.415036      299.49129     -278.91742     -574748.53     -571600.02      73220.546     -644820.57    
    176000   176000         1.1874745      0.81621382     372.12953      238.76397      133.36556      91.669184      300.44902      34.037926     -571219.05     -571603.28      73454.696     -645057.98    
    177000   177000         1.1841904      0.83900529     367.79119      238.04848      129.7427       91.92341       299.58327      283.14879     -568410.75     -571607.02      73243.033     -644850.05    
    178000   178000         1.1807677      0.83608829     370.16933      239.97398      130.19536      92.189865      300.57177     -49.79377      -572160.57     -571598.48      73484.707     -645083.19    
    179000   179000         1.1773541      0.82095958     372.94914      240.35453      132.59461      92.457158      300.13249      182.56713     -569547.63     -571608.51      73377.309     -644985.81    
    180000   180000         1.1740344      0.81201204     370.57506      236.51939      134.05567      92.718587      299.6963       170.47018     -569679.41     -571603.73      73270.669     -644874.4     
    181000   181000         1.1708902      0.82636914     374.14303      242.41641      131.72662      92.967567      300.78641      121.79266     -570234.88     -571609.72      73537.181     -645146.9     
    182000   182000         1.1678695      0.81455678     371.15412      237.51726      133.63687      93.208033      299.41991     -126.4499      -573022.82     -571595.42      73203.095     -644798.51    
    183000   183000         1.1649439      0.79811063     374.70675      238.31611      136.39063      93.442111      299.88988      34.76094      -571219.41     -571611.8       73317.995     -644929.8     
    184000   184000         1.1619295      0.80688039     373.20245      238.2942       134.90824      93.684524      300.45879     -75.298265     -572453.96     -571603.97      73457.085     -645061.05    
    185000   185000         1.1589561      0.79137153     371.82665      234.27455      137.5521       93.924883      300.72201      206.98957     -569265.62     -571602.18      73521.438     -645123.62    
    186000   186000         1.1559163      0.83705528     366.64124      236.59629      130.04495      94.17188       300.27306     -23.426964     -571868.77     -571604.32      73411.675     -645016       
    187000   187000         1.1528889      0.80125145     375.21222      239.35623      135.856        94.419169      300.20575      409.3818      -566986.99     -571608.22      73395.22      -645003.44    
    188000   188000         1.1497611      0.76791473     380.42034      238.66656      141.75378      94.676029      300.26713     -149.36693     -573283.83     -571597.73      73410.227     -645007.96    
    189000   189000         1.146656       0.77958952     376.34634      236.7154       139.63094      94.932411      299.36058      83.722183     -570651.1      -571596.18      73188.591     -644784.77    
    190000   190000         1.1435099      0.77284851     375.44527      234.59643      140.84884      95.193588      300.40688      196.19329     -569390.69     -571605.38      73444.392     -645049.77    
    191000   191000         1.1404697      0.87018864     366.92427      241.83092      125.09335      95.44735       299.43036      232.56159     -568977.31     -571602.53      73205.65      -644808.18    
    192000   192000         1.1375267      0.78678776     373.82787      235.4744       138.35347      95.694291      298.97993      222.90699     -569077.46     -571593.71      73095.529     -644689.24    
    193000   193000         1.1345095      0.79069102     373.54362      235.87313      137.67048      95.948789      299.47681      54.553822     -570985.03     -571600.85      73217.006     -644817.86    
    194000   194000         1.1313023      0.74993049     375.25799      230.10478      145.15321      96.220798      298.99132     -91.795765     -572632.1      -571595.88      73098.312     -644694.19    
    195000   195000         1.1281831      0.77573004     378.31523      237.98959      140.32564      96.486835      298.63402     -0.72306303    -571611.77     -571603.6       73010.959     -644614.56    
    196000   196000         1.1251084      0.75163512     380.34989      235.52588      144.82401      96.750514      300.34209      150.66084     -569900        -571600.71      73428.553     -645029.26    
    197000   197000         1.1220021      0.77075453     375.76017      234.52867      141.2315       97.018372      300.22923      75.382971     -570750.3      -571601.25      73400.961     -645002.21    
    198000   198000         1.1188766      0.78970683     377.17653      239.33447      137.84206      97.289385      300.22618     -229.46373     -574195.73     -571605.47      73400.216     -645005.69    
    199000   199000         1.1157936      0.73517776     380.18007      232.11409      148.06598      97.5582        299.63096      59.202341     -570932.65     -571600.95      73254.694     -644855.64    
    200000   200000         1.1127208      0.70099804     391.43375      236.14827      155.28548      97.827607      301.14812      160.06882     -569803.25     -571610.16      73625.614     -645235.77    
    201000   201000         1.109724       0.73037876     377.59163      228.55277      149.03886      98.091791      299.47453      88.564728     -570610.34     -571610.09      73216.45      -644826.54    
    202000   202000         1.1068502      0.74225884     379.58278      232.92934      146.65344      98.346476      301.08607      212.32738     -569213.35     -571610.17      73610.442     -645220.61    
    203000   203000         1.1039907      0.76574761     376.67874      234.52379      142.15495      98.601207      300.05822     -5.3256199     -571670.59     -571610.47      73359.151     -644969.62    
    204000   204000         1.1013339      0.73364134     382.28032      233.90425      148.37606      98.839071      299.5292       129.46926     -570140.47     -571601.96      73229.815     -644831.77    
    205000   205000         1.0989222      0.75900699     374.35481      230.9374       143.41741      99.055977      299.58068     -245.92748     -574382.19     -571606.08      73242.401     -644848.48    
    206000   206000         1.0964803      0.76934358     368.93848      227.44797      141.49051      99.276582      299.77623     -469.17205     -576899.49     -571603.33      73290.21      -644893.54    
    207000   207000         1.0940976      0.80638609     366.23824      231.2473       134.99094      99.492787      300.79516      134.43079     -570095.64     -571613.14      73539.321     -645152.46    
    208000   208000         1.0915987      0.723393       376.48793      226.00981      150.47811      99.720541      300.2264       136.11136     -570073.3      -571609.77      73400.269     -645010.04    
    209000   209000         1.08891        0.77020758     372.98146      231.64967      141.33179      99.96677       300.29706     -399.73357     -576116.88     -571604.56      73417.543     -645022.11    
    210000   210000         1.0861831      0.70354065     383.83641      229.11214      154.72427      100.21774      299.9861      -181.25876     -573649.5      -571603.4       73341.52      -644944.92    
    211000   211000         1.0834585      0.74439834     377.67734      231.4454       146.23194      100.46976      299.63117     -81.969225     -572528.68     -571603.38      73254.744     -644858.13    
    212000   212000         1.0808177      0.76882174     375.31462      233.72808      141.58655      100.71524      299.79014      297.06715     -568243.15     -571596.54      73293.612     -644890.15    
    213000   213000         1.0782754      0.73285444     377.61578      229.0804       148.53538      100.9527       300.47576     -21.74325      -571862.71     -571617.27      73461.234     -645078.5     
    214000   214000         1.0755782      0.7242063      378.04085      227.73172      150.30913      101.20586      298.60568      176.67244     -569597.58     -571591.92      73004.03      -644595.95    
    215000   215000         1.0729604      0.71956016     383.88245      232.6028       151.27966      101.45278      298.74858     -69.538045     -572378.44     -571593.47      73038.967     -644632.44    
    216000   216000         1.0702381      0.72537794     381.25913      231.19279      150.06634      101.71084      300.72521      133.5361      -570093.27     -571600.67      73522.22      -645122.89    
    217000   217000         1.0676467      0.68121272     388.92911      229.13348      159.79563      101.95771      301.01687     -409.62232     -576232.96     -571609.02      73593.525     -645202.54    
    218000   218000         1.0651294      0.74311221     378.94481      232.45978      146.48503      102.19868      299.56373      41.947404     -571131.35     -571604.86      73238.257     -644843.12    
    219000   219000         1.0625098      0.71053955     383.69895      230.49873      153.20022      102.45064      299.22782     -62.37945      -572301        -571596.84      73156.134     -644752.98    
    220000   220000         1.060004       0.72787792     381.17597      231.62505      149.55092      102.69283      298.93584      578.6524      -565059.39     -571591.4       73084.748     -644676.15    
    221000   221000         1.0575352      0.72231562     380.49631      229.79374      150.70256      102.93257      300.62072      96.743335     -570515.58     -571607.65      73496.674     -645104.32    
    222000   222000         1.0551756      0.71424075     382.77744      230.3711       152.40633      103.16274      300.80028      1.6922328     -571590.15     -571609.25      73540.574     -645149.83    
    223000   223000         1.0527473      0.69975657     385.23374      229.67277      155.56098      103.4007       300.41422     -41.000954     -572056.73     -571593.9       73446.188     -645040.08    
    224000   224000         1.0503525      0.70292531     383.75287      228.89316      154.85972      103.63646      301.10082      174.62493     -569642.26     -571613.49      73614.051     -645227.54    
    225000   225000         1.0479307      0.7051726      387.8442       233.478        154.3662       103.87597      300.66365     -201.46748     -573887.76     -571613.54      73507.169     -645120.71    
    226000   226000         1.045555       0.70066383     386.7879       231.42835      155.35955      104.112        300.04692     -23.99525      -571878.62     -571607.76      73356.389     -644964.14    
    227000   227000         1.0430796      0.69806108     385.20969      229.27087      155.93881      104.35907      299.89646      764.66127     -562959.29     -571591.03      73319.605     -644910.64    
    228000   228000         1.0407414      0.70455641     390.27727      235.77607      154.50121      104.59352      300.41135      349.42101     -567658.82     -571603.19      73445.486     -645048.68    
    229000   229000         1.0383907      0.68706397     385.26174      226.82698      158.43476      104.83031      298.70045      328.93912     -567871.34     -571584.5       73027.201     -644611.71    
    230000   230000         1.0359704      0.65606534     389.55209      223.6314       165.92069      105.07522      299.90821      154.6537      -569848.1      -571593.88      73322.476     -644916.36    
    231000   231000         1.0335714      0.69741376     386.00046      229.91691      156.08355      105.31911      300.35675      271.17194     -568536.52     -571597.6       73432.137     -645029.73    
    232000   232000         1.0311734      0.65886478     390.55103      225.33531      165.21571      105.56402      300.70543     -122.13729     -572992.84     -571614.12      73517.385     -645131.5     
    233000   233000         1.0288184      0.67186101     388.83243      226.81259      162.01984      105.80566      299.53065      114.02448     -570303.67     -571590.81      73230.169     -644820.98    
    234000   234000         1.0263683      0.68010078     382.60176      222.54487      160.05689      106.05824      299.55739     -103.88031     -572770.93     -571598.3       73236.706     -644835.01    
    235000   235000         1.0239646      0.66004548     389.14389      224.22372      164.92017      106.30721      300.49348      137.74534     -570040.65     -571595.56      73465.565     -645061.13    
    236000   236000         1.0215431      0.66447745     389.85132      226.03114      163.82018      106.5592       300.37072      58.881129     -570935.4      -571600.07      73435.552     -645035.62    
    237000   237000         1.0191271      0.6760065      387.7229       226.69662      161.02629      106.81181      299.97506      226.28811     -569041.22     -571595.63      73338.82      -644934.45    
    238000   238000         1.0167861      0.71547763     380.16744      228.02457      152.14286      107.05774      300.32838      184.55892     -569520.68     -571604.04      73425.201     -645029.24    
    239000   239000         1.0144939      0.62612007     400.19534      226.33921      173.85613      107.29963      300.30782     -77.952845     -572471.18     -571591.23      73420.175     -645011.4     
    240000   240000         1.0121272      0.68488798     386.47055      227.53242      158.93813      107.55053      299.75764      166.54603     -569724.95     -571604.97      73285.664     -644890.64    
    241000   241000         1.0098597      0.70001115     386.77247      231.26807      155.5044       107.79202      300.00441     -135.69437     -573126.1      -571594.34      73345.997     -644940.34    
    242000   242000         1.0077217      0.66731129     384.06715      220.94266      163.12449      108.02071      299.41169      148.87008     -569923.01     -571603.5       73201.087     -644804.59    
    243000   243000         1.0055653      0.70546758     384.27746      229.9758       154.30166      108.25236      300.1203      -402.47491     -576144.8      -571601.53      73374.329     -644975.86    
    244000   244000         1.0032967      0.65880669     390.74956      225.51928      165.23028      108.49713      299.65812      252.88632     -568750.22     -571604.88      73261.335     -644866.21    
    245000   245000         1.001156       0.66497396     386.82165      223.12378      163.69786      108.72912      300.0264       13.27665      -571456.13     -571606         73351.371     -644957.37    
    246000   246000         0.99894022     0.67387741     385.26299      223.72795      161.53504      108.9703       299.28646      175.6544      -569611.57     -571594.41      73170.47      -644764.88    
    247000   247000         0.99674401     0.66585016     385.98337      222.50092      163.48245      109.2104       299.6926       394.78416     -567139.94     -571596.39      73269.763     -644866.15    
    248000   248000         0.99463723     0.67470033     388.31483      226.97681      161.33802      109.44173      299.97806      252.88505     -568745.33     -571599.98      73339.553     -644939.53    
    249000   249000         0.99255871     0.6581027      385.70884      220.3018       165.40703      109.67091      300.23423     -8.8101771     -571696.41     -571596.96      73402.184     -644999.14    
    250000   250000         0.99056407     0.68127561     386.04863      226.26775      159.78088      109.89175      300.18714      227.1776      -569027.52     -571591.97      73390.67      -644982.64    
    251000   251000         0.98841451     0.67167062     382.72763      220.66186      162.06577      110.13073      300.10317      193.34085     -569424.7      -571607.19      73370.14      -644977.33    
    252000   252000         0.98639008     0.67233161     384.58438      222.67794      161.90644      110.35676      300.18356      97.588345     -570499.94     -571601.54      73389.795     -644991.34    
    253000   253000         0.98443645     0.64724126     388.84725      220.6645       168.18275      110.57577      300.79928      102.25505     -570454.79     -571609.08      73540.329     -645149.41    
    254000   254000         0.98246466     0.66048154     386.57976      221.76847      164.81129      110.79769      299.79464     -30.361553     -571951.37     -571608.64      73294.71      -644903.35    
    255000   255000         0.98042299     0.66207435     386.47616      222.06137      164.41479      111.02842      299.41853      641.09519     -564366.53     -571603.42      73202.759     -644806.18    
    256000   256000         0.97834825     0.61708487     393.87323      217.47154      176.40169      111.26387      300.81288     -12.895272     -571749.32     -571603.75      73543.653     -645147.4     
    257000   257000         0.9763014      0.67543702     385.15751      223.99546      161.16205      111.49714      298.77233      116.55472     -570283.24     -571598.94      73044.773     -644643.72    
    258000   258000         0.97433539     0.64815108     391.94791      224.00124      167.94667      111.72212      300.09415      207.80716     -569251.42     -571597.21      73367.935     -644965.14    
    259000   259000         0.97226299     0.65782979     390.37961      224.90395      165.47565      111.96026      301.80223      22.358261     -571362.99     -571615.38      73785.533     -645400.91    
    260000   260000         0.9702777      0.61197784     398.33541      220.46162      177.87379      112.18934      300.90247      127.44968     -570165.94     -571604.63      73565.557     -645170.19    
    261000   261000         0.96825405     0.62862895     393.92504      220.76277      173.16227      112.42382      300.6003       371.48758     -567410.34     -571603.81      73491.681     -645095.49    
    262000   262000         0.9663402      0.63342564     393.64352      221.79254      171.85098      112.64647      300.42618      197.12829     -569380.07     -571605.31      73449.111     -645054.43    
    263000   263000         0.96448178     0.62970612     394.41395      221.54789      172.86606      112.86353      300.82842     -232.91919     -574239.27     -571610.01      73547.452     -645157.46    
    264000   264000         0.96253249     0.64993757     391.98671      224.50168      167.48503      113.09209      299.78908      125.59975     -570177.95     -571595.76      73293.351     -644889.11    
    265000   265000         0.96065022     0.66772644     386.24085      223.21778      163.02307      113.31368      299.4978       233.68283     -568959.16     -571597.05      73222.14      -644819.19    
    266000   266000         0.95880551     0.65239483     385.81821      218.96402      166.8542       113.5317       299.97901      359.91377     -567550.48     -571613.3       73339.786     -644953.09    
    267000   267000         0.95692443     0.64846825     386.46757      218.60304      167.86453      113.75487      300.81347      221.09169     -569118.31     -571614.06      73543.797     -645157.86    
    268000   268000         0.95508127     0.61464035     394.10198      216.99871      177.10327      113.9744       300.22153     -270.67825     -574655.72     -571600.22      73399.078     -644999.3     
    269000   269000         0.9532197      0.61716328     392.95891      216.57962      176.37928      114.19698      299.64969      22.542129     -571350.13     -571604.59      73259.272     -644863.86    
    270000   270000         0.95133595     0.63517764     391.6052       220.22824      171.37696      114.42311      300.47107     -274.63747     -574709.75     -571609.55      73460.086     -645069.64    
    271000   271000         0.94949298     0.60553381     401.02818      221.26148      179.7667       114.6452       300.91681     -93.481043     -572669.47     -571614.22      73569.063     -645183.29    
    272000   272000         0.94768085     0.65164422     387.39073      220.34434      167.04639      114.86442      300.42326      457.88971     -566431.75     -571600.55      73448.399     -645048.95    
    273000   273000         0.94600185     0.6558754      384.52872      218.55998      165.96874      115.06829      299.8353      -80.178392     -572510.95     -571605.88      73304.651     -644910.53    
    274000   274000         0.94438007     0.6600477      387.05513      222.13551      164.91962      115.2659       299.91218     -479.01379     -577007.28     -571600.02      73323.448     -644923.47    
    275000   275000         0.94272607     0.69323207     380.43297      223.4079       157.02507      115.46813      299.70124     -312.4179      -575116.58     -571589.91      73271.877     -644861.78    
    276000   276000         0.94098573     0.61066918     396.34382      218.08885      178.25497      115.68169      301.11308      342.2216      -567745.7      -571608.81      73617.047     -645225.86    
    277000   277000         0.93931625     0.62955381     395.70708      222.7992       172.90788      115.88729      300.77519      122.24124     -570226.55     -571606.44      73534.44      -645140.88    
    278000   278000         0.93761364     0.61833575     400.34071      224.29588      176.04484      116.09773      301.01751      232.42134     -568979.95     -571603.59      73593.682     -645197.27    
    279000   279000         0.93590273     0.62541293     392.24899      218.19628      174.05271      116.30997      299.98135      357.79424     -567559.94     -571598.83      73340.359     -644939.19    
    280000   280000         0.93417707     0.60347808     399.24068      218.86161      180.37907      116.52482      300.54723      176.39328     -569616.51     -571607.69      73478.705     -645086.4     
    281000   281000         0.93248033     0.61920526     391.73383      215.9362       175.79763      116.73685      299.03728      314.49037     -568045.52     -571595.58      73109.548     -644705.13    
    282000   282000         0.93070609     0.59963776     399.10018      217.56588      181.53429      116.95939      300.48255      56.395837     -570975.1      -571611.72      73462.892     -645074.61    
    283000   283000         0.92895718     0.64920058     390.07882      222.40365      167.67517      117.17958      299.87767      162.6528      -569765.62     -571601.69      73315.01      -644916.7     
    284000   284000         0.92719534     0.60076074     400.96157      219.76662      181.19496      117.40225      299.83986      83.59459      -570663.19     -571606.84      73305.768     -644912.6     
    285000   285000         0.92538824     0.58761969     403.95316      218.70611      185.24705      117.63151      300.31893      199.33008     -569352.05     -571602.16      73422.892     -645025.05    
    286000   286000         0.92353944     0.59102334     402.47578      218.29555      184.18023      117.86699      300.10248     -89.391829     -572613.09     -571604.01      73369.971     -644973.98    
    287000   287000         0.92171641     0.60039582     399.64467      218.33958      181.30509      118.10012      300.59315      48.629587     -571050.43     -571599.38      73489.933     -645089.31    
    288000   288000         0.91998077     0.62742305     394.9976       221.50252      173.49509      118.32292      299.55935     -132.46508     -573097.1      -571601.8       73237.186     -644838.98    
    289000   289000         0.91828982     0.62602676     391.84718      217.96513      173.88205      118.54081      301.46436     -101.83314     -572751.09     -571601.57      73702.928     -645304.5     
    290000   290000         0.91660997     0.61720979     391.6952       215.32921      176.36599      118.75805      299.34657      318.78604     -567999.24     -571597.8       73185.165     -644782.97    
    291000   291000         0.91491838     0.58939196     398.3037       213.61367      184.69002      118.97762      299.78548     -245.60882     -574375.95     -571603.44      73292.471     -644895.91    
    292000   292000         0.91321167     0.61633076     395.05192      218.43439      176.61753      119.19998      299.20118      337.8627      -567785.64     -571599.54      73149.621     -644749.16    
    293000   293000         0.91156646     0.58606574     405.01772      219.27948      185.73823      119.41512      300.36138      175.0478      -569631.13     -571607.12      73433.268     -645040.39    
    294000   294000         0.91003176     0.63683011     389.29605      218.36378      170.93227      119.6165       300.07116      289.62486     -568340.57     -571609.95      73362.315     -644972.26    
    295000   295000         0.90843811     0.59870539     397.04375      215.22675      181.81699      119.82634      300.34411     -299.92869     -574987.51     -571601.82      73429.047     -645030.86    
    296000   296000         0.90688012     0.60754921     397.17186      218.00149      179.17037      120.0322       299.34832     -314.26187     -575140.96     -571593.47      73185.593     -644779.07    
    297000   297000         0.90523721     0.60575168     398.25103      218.54898      179.70204      120.25004      300.44385      6.8688855     -571527.6      -571605.13      73453.431     -645058.57    
    298000   298000         0.90356324     0.62909483     391.08028      218.04624      173.03403      120.47282      300.67633     -45.991166     -572124.37     -571605.21      73510.269     -645115.48    
    299000   299000         0.90189702     0.60228617     401.18118      220.44515      180.73604      120.69539      299.50035      91.159356     -570571.23     -571600.26      73222.762     -644823.03    
    300000   300000         0.90024055     0.60231478     399.98947      219.26201      180.72745      120.91748      300.14138     -99.061985     -572725.72     -571607.48      73379.482     -644986.96    
    301000   301000         0.89851543     0.57474351     406.37941      216.98221      189.39721      121.14963      301.42411      107.15929     -570398.67     -571608.32      73693.087     -645301.41    
    302000   302000         0.8968127      0.58473807     400.74343      214.58347      186.15996      121.37965      299.15804     -352.01063     -575579.6      -571605.99      73139.073     -644745.06    
    303000   303000         0.89515507     0.58806605     399.82092      214.71448      185.10644      121.60442      300.21994      137.41728     -570053.25     -571604.46      73398.689     -645003.15    
    304000   304000         0.89358598     0.59699228     396.19512      213.85639      182.33873      121.81795      300.25152     -100.37742     -572741.95     -571608.86      73406.41      -645015.27    
    305000   305000         0.89194745     0.59221015     396.93272      213.12159      183.81113      122.04174      300.72611      226.22112     -569051.43     -571605.08      73522.439     -645127.52    
    306000   306000         0.89032063     0.59694251     396.39408      214.04015      182.35394      122.26473      299.30671     -161.20738     -573416.48     -571596.72      73175.421     -644772.14    
    307000   307000         0.88868845     0.59158319     400.31152      216.30559      184.00593      122.48929      300.64821     -120.23884     -572967.67     -571610.37      73503.394     -645113.77    
    308000   308000         0.88705902     0.58135203     400.6261       213.38187      187.24423      122.71429      300.66927      89.517867     -570597.69     -571608.19      73508.543     -645116.73    
    309000   309000         0.88545228     0.56006612     404.80038      210.43973      194.36065      122.93696      299.74539     -612.28188     -578512.03     -571600.4       73282.67      -644883.07    
    310000   310000         0.88386712     0.59367136     397.86275      214.50404      183.35871      123.15744      300.98673      118.27274     -570273.88     -571608.98      73586.157     -645195.14    
    311000   311000         0.88227587     0.55840154     406.98759      212.04755      194.94003      123.37957      301.53755      690.16733     -563819.78     -571610.61      73720.822     -645331.43    
    312000   312000         0.88065925     0.57242257     403.61742      213.45228      190.16514      123.60605      300.48024     -82.292876     -572534.02     -571605.07      73462.329     -645067.4     
    313000   313000         0.87910123     0.58536334     398.43291      212.47181      185.96111      123.82512      300.81909      212.84229     -569193.18     -571595.81      73545.172     -645140.98    
    314000   314000         0.87757838     0.5970999      396.18042      213.87455      182.30587      124.03999      299.57477      188.15497     -569481.87     -571605.82      73240.955     -644846.78    
    315000   315000         0.87606709     0.56971943     402.19233      211.12492      191.06741      124.25397      299.52495      192.38237     -569421.17     -571592.84      73228.777     -644821.62    
    316000   316000         0.87456755     0.56142884     405.42111      211.53222      193.88889      124.46702      299.31317     -157.30478     -573371.57     -571595.86      73176.999     -644772.86    
    317000   317000         0.87306869     0.57361615     396.27611      206.50667      189.76944      124.6807       300.64813     -111.78656     -572867.12     -571605.24      73503.374     -645108.62    
    318000   318000         0.87157267     0.58611945     397.22051      211.49929      185.72121      124.89471      298.74556      254.86077     -568723.87     -571600.81      73038.23      -644639.04    
    319000   319000         0.87010156     0.58224062     397.15903      210.20056      186.95847      125.10587      299.93906     -78.197739     -572475.55     -571592.83      73330.02      -644922.85    
    320000   320000         0.86858293     0.58287988     394.32091      207.56749      186.75343      125.32461      298.77469      284.26826     -568388.26     -571597.17      73045.35      -644642.52    
    321000   321000         0.86710383     0.58296462     393.58258      206.8563       186.72628      125.53839      299.87981      624.98056     -564543.53     -571598.51      73315.534     -644914.04    
    322000   322000         0.86563164     0.55777464     403.96773      208.8086       195.15913      125.75189      299.98         397.6558      -567124.66     -571613.53      73340.028     -644953.55    
    323000   323000         0.86420261     0.57036912     403.11237      212.2626       190.84977      125.95983      300.669        67.628673     -570845.11     -571608.52      73508.478     -645117       
    324000   324000         0.86272151     0.55637671     405.40649      209.75701      195.64948      126.17608      300.58831      316.42078     -568045        -571616.86      73488.749     -645105.61    
    325000   325000         0.86130439     0.57578511     402.63958      213.58499      189.05459      126.38368      301.26337     -61.375194     -572297.07     -571604.25      73653.791     -645258.04    
    326000   326000         0.85990798     0.58465538     398.33864      212.15235      186.18629      126.58891      299.78641      86.150271     -570618.79     -571591.28      73292.699     -644883.98    
    327000   327000         0.85852331     0.58389596     397.91936      211.49092      186.42844      126.79308      300.15456     -114.11995     -572899.12     -571610.9       73382.706     -644993.6     
    328000   328000         0.85714669     0.5573587      405.95776      210.65298      195.30478      126.99672      299.93253      449.07674     -566526.12     -571595.44      73328.422     -644923.86    
    329000   329000         0.85578257     0.59462682     396.5397       213.47561      183.06409      127.19915      300.51836      89.83576      -570592.15     -571606.24      73471.647     -645077.89    
    330000   330000         0.85447591     0.61262541     394.96269      217.27692      177.68577      127.39366      299.22345     -458.20567     -576771.86     -571599.49      73155.065     -644754.56    
    331000   331000         0.85312425     0.57891228     398.62444      210.59109      188.03335      127.5955       299.76164     -353.83057     -575592.7      -571598.55      73286.642     -644885.19    
    332000   332000         0.85168234     0.56957577     403.62938      212.51378      191.1156       127.81152      300.40144     -397.67299     -576099.28     -571610.22      73443.062     -645053.28    
    333000   333000         0.85023871     0.56339538     404.52298      211.31086      193.21212      128.02853      298.87569      215.57407     -569155.31     -571588.78      73070.042     -644658.82    
    334000   334000         0.8488418      0.55282714     404.94309      208.03739      196.9057       128.23923      299.29428      186.23513     -569494.45     -571596.73      73172.382     -644769.11    
    335000   335000         0.84745248     0.56349122     403.27912      210.09986      193.17926      128.44946      299.4143      -138.2781      -573161.03     -571600.1       73201.724     -644801.82    
    336000   336000         0.84614381     0.55854578     406.65393      211.76424      194.88969      128.64813      300.60795      64.083392     -570895.3      -571618.7       73493.552     -645112.25    
    337000   337000         0.84486832     0.56966171     397.98645      206.89968      191.08677      128.84234      299.98025     -331.44276     -575343.99     -571602.56      73340.09      -644942.65    
    338000   338000         0.84357886     0.57367309     400.58132      210.83072      189.7506       129.03929      300.19863     -43.100361     -572090.02     -571603.49      73393.48      -644996.97    
    339000   339000         0.84230747     0.56985005     403.07791      212.05429      191.02361      129.23406      300.44732      15.616351     -571424.46     -571600.74      73454.279     -645055.02    
    340000   340000         0.84102292     0.57416534     403.47508      213.88716      189.58792      129.43145      299.47441      300.55649     -568206.91     -571599.69      73216.421     -644816.11    
    341000   341000         0.83977464     0.56408261     401.67192      208.69519      192.97673      129.62384      300.28032     -249.66687     -574415.94     -571597.62      73413.453     -645011.07    
    342000   342000         0.83853586     0.56092801     403.77566      209.71366      194.06201      129.81534      300.44609     -64.347422     -572336.83     -571610.45      73453.978     -645064.43    
    343000   343000         0.83732266     0.56212478     403.66082      210.01197      193.64885      130.00343      300.71236      430.45159     -566753.55     -571612.62      73519.077     -645131.7     
    344000   344000         0.83615406     0.59150245     397.35444      213.3234       184.03105      130.18512      300.25726      129.67147     -570139.36     -571603.13      73407.813     -645010.94    
    345000   345000         0.83501443     0.60717161     391.98922      212.70743      179.28179      130.3628       299.62621     -209.07491     -573960.33     -571600.23      73253.531     -644853.76    
    346000   346000         0.83388738     0.57946033     399.79461      211.9391       187.85551      130.53899      299.53429      53.002572     -570995.67     -571593.98      73231.059     -644825.04    
    347000   347000         0.83276784     0.56712826     404.75095      212.81057      191.94038      130.71448      299.94089      223.72342     -569074.64     -571600.1       73330.467     -644930.56    
    348000   348000         0.83161333     0.57584839     398.61624      209.58243      189.03381      130.89595      299.97171      150.81903     -569891.97     -571594.46      73338         -644932.46    
    349000   349000         0.8303941      0.53671018     411.94544      209.12682      202.81861      131.08814      299.81796      57.580054     -570950.71     -571600.69      73300.411     -644901.1     
    350000   350000         0.82917951     0.54866887     409.612        211.21398      198.39801      131.28016      300.17478      168.40335     -569709.41     -571610.4       73387.648     -644998.05    
    351000   351000         0.82796912     0.54597039     412.41127      213.03266      199.37861      131.47207      300.60123     -288.39535     -574864.04     -571608.54      73491.908     -645100.45    
    352000   352000         0.82676472     0.55622692     409.95129      214.24912      195.70217      131.6636       300.66012     -202.67612     -573885.14     -571597.27      73506.305     -645103.57    
    353000   353000         0.8255821      0.55221875     408.35884      211.23621      197.12264      131.8522       300.52608      127.13731     -570160.06     -571595.23      73473.535     -645068.76    
    354000   354000         0.82441629     0.5684489      403.03533      211.54087      191.49446      132.03865      300.11092      75.19843      -570747.68     -571596.54      73372.035     -644968.58    
[...]
    931000   931000         0.55528882     0.43464501     427.47247      177.02713      250.44534      196.03279      300.36655      162.83308     -569756.82     -571594.93      73434.534     -645029.46    
    932000   932000         0.55512517     0.44282749     424.41444      178.59679      245.81765      196.09058      299.82719     -79.543738     -572492.78     -571594.86      73302.668     -644897.53    
    933000   933000         0.55495357     0.42022789     438.42839      179.39081      259.03758      196.15121      300.73813     -119.9195      -572963.2      -571609.51      73525.379     -645134.89    
    934000   934000         0.55477908     0.43120457     433.49689      181.05334      252.44355      196.21291      300.84558      112.66973     -570327.98     -571599.83      73551.648     -645151.48    
    935000   935000         0.55460324     0.4425912      421.17694      175.22805      245.94889      196.27512      299.70425     -111.23216     -572853.19     -571597.56      73272.612     -644870.17    
    936000   936000         0.55443204     0.42250147     437.04041      179.39677      257.64364      196.33572      300.28049     -475.29681     -576972.23     -571606.92      73413.493     -645020.42    
    937000   937000         0.55426141     0.43139832     428.10235      175.77217      252.33018      196.39617      301.6509       6.0647111     -571540.06     -571608.52      73748.536     -645357.05    
    938000   938000         0.55408768     0.42602123     433.93984      178.42484      255.515        196.45774      299.85416      313.71311     -568060.18     -571601.47      73309.262     -644910.73    
    939000   939000         0.55391368     0.42692718     435.32505      180.35226      254.97279      196.51946      300.36904     -252.49201     -574447.6      -571597.39      73435.142     -645032.53    
    940000   940000         0.55374553     0.43884698     425.68896      177.64164      248.04732      196.57913      299.99845     -72.267466     -572415.48     -571599.7       73344.54      -644944.24    
    941000   941000         0.55355595     0.41036339     442.09308      176.82864      265.26444      196.64646      299.65228      67.582866     -570850.92     -571613.82      73259.905     -644873.72    
    942000   942000         0.55337127     0.42344964     435.87586      178.80913      257.06673      196.71208      301.00662      192.18108     -569436.66     -571606.06      73591.02      -645197.08    
    943000   943000         0.55319443     0.42735234     437.11948      182.40035      254.71913      196.77497      300.05785      5.8429888     -571530.12     -571596.08      73359.062     -644955.14    
    944000   944000         0.55301363     0.42946181     435.00095      181.53297      253.46797      196.8393       300.14027     -87.451583     -572590.11     -571602.93      73379.21      -644982.14    
    945000   945000         0.55283801     0.42735084     432.573        177.85298      254.72002      196.90183      300.02922      94.447492     -570535.48     -571601.64      73352.061     -644953.7     
    946000   946000         0.55266337     0.41623742     444.37199      182.85102      261.52097      196.96405      300.68262     -774.28194     -580343.76     -571603.42      73511.808     -645115.23    
    947000   947000         0.55248699     0.41023808     442.78372      177.43825      265.34547      197.02693      299.94145      56.116972     -570963.62     -571597.08      73330.604     -644927.69    
    948000   948000         0.55231287     0.43576963     433.35466      183.55566      249.799        197.08904      300.52023     -31.353734     -571955.58     -571601.65      73472.106     -645073.75    
    949000   949000         0.55214999     0.41523872     441.08674      178.93677      262.14997      197.14718      299.18166     -308.47789     -575078.51     -571596.32      73144.847     -644741.16    
    950000   950000         0.55197405     0.42461436     436.62416      180.26256      256.3616       197.21002      300.38773     -100.17416     -572734.78     -571603.98      73439.712     -645043.7     
    951000   951000         0.55180449     0.43325615     431.22347      179.97529      251.24817      197.27062      300.30943     -284.04205     -574805.61     -571599.26      73420.568     -645019.83    
    952000   952000         0.55162673     0.41812225     442.38973      182.04765      260.34208      197.33419      300.10981      83.100274     -570656.93     -571594.99      73371.764     -644966.76    
    953000   953000         0.55144993     0.42259283     440.94671      183.35877      257.58794      197.39746      300.84274     -138.59194     -573161.15     -571596.68      73550.954     -645147.63    
    954000   954000         0.55128076     0.43868387     435.33966      187.20012      248.13954      197.45803      300.51561     -559.71197     -577916.92     -571598.71      73470.977     -645069.69    
    955000   955000         0.55110723     0.44001248     429.14367      181.75338      247.39029      197.52021      300.25548      183.88626     -569517.72     -571593.49      73407.378     -645000.86    
    956000   956000         0.55093278     0.42604082     434.7856       179.28235      255.50325      197.58275      300.15927     -54.707753     -572221.03     -571603.47      73383.857     -644987.33    
    957000   957000         0.55075992     0.42629767     433.37417      178.02487      255.34931      197.64476      299.87118      107.2893      -570388.97     -571600.09      73313.424     -644913.51    
    958000   958000         0.55058616     0.43036511     433.35873      180.42276      252.93597      197.70714      300.64549     -30.114477     -571939.98     -571600.04      73502.729     -645102.77    
    959000   959000         0.55041104     0.42153016     439.64241      181.40509      258.23731      197.77004      300.30614      49.946419     -571036.09     -571599.9       73419.765     -645019.66    
    960000   960000         0.5502431      0.41436285     441.77492      179.07083      262.70409      197.83041      299.92722      121.26239     -570234.32     -571603.17      73327.125     -644930.3     
    961000   961000         0.55008433     0.42839638     437.97999      183.88163      254.09836      197.8875       300.83129     -234.93714     -574254.92     -571602.87      73548.155     -645151.03    
    962000   962000         0.54992971     0.45028747     423.126        181.38084      241.74516      197.94314      299.81532     -31.461623     -571954.37     -571599.22      73299.767     -644898.99    
    963000   963000         0.54977034     0.42647859     437.62855      182.38757      255.24098      198.00052      300.52425      82.667809     -570671.6      -571604.78      73473.089     -645077.87    
    964000   964000         0.54960112     0.42359548     435.16089      178.18266      256.97823      198.06149      300.64101     -230.6118      -574205.37     -571602.15      73501.634     -645103.78    
    965000   965000         0.54942921     0.42058268     440.574        181.75494      258.81906      198.12346      300.34321     -126.22011     -573026.85     -571602.04      73428.827     -645030.87    
    966000   966000         0.5492637      0.43080345     436.01953      183.34093      252.67861      198.18316      300.08714     -99.604762     -572728.75     -571604.38      73366.222     -644970.6     
    967000   967000         0.54909133     0.43231962     434.28355      182.49111      251.79245      198.24537      300.68069      423.20753     -566825.79     -571603.09      73511.336     -645114.43    
    968000   968000         0.54892114     0.42448301     435.24236      178.80144      256.44092      198.30684      299.90128      358.32632     -567556.66     -571601.56      73320.782     -644922.35    
    969000   969000         0.54875675     0.42025862     436.75748      177.73884      259.01864      198.36624      300.02212      266.31005     -568594.57     -571600.76      73350.326     -644951.08    
    970000   970000         0.548593       0.43191237     430.73968      178.70981      252.02987      198.42546      299.79026      151.90621     -569880.76     -571595.52      73293.641     -644889.16    
    971000   971000         0.54842936     0.44472247     426.99801      182.22779      244.77022      198.48466      297.96943      1.3727693     -571578.01     -571593.5       72848.477     -644441.98    
    972000   972000         0.54826431     0.42166347     439.85422      181.69855      258.15567      198.54441      300.53598      472.70484     -566263.33     -571599.37      73475.956     -645075.33    
    973000   973000         0.54810667     0.45070577     422.26284      180.74205      241.5208       198.60152      300.26934     -42.797654     -572087.54     -571604.43      73410.767     -645015.19    
    974000   974000         0.54795733     0.44326489     426.85592      181.28084      245.57509      198.65564      299.67575      367.61203     -567452.28     -571602         73265.645     -644867.65    
    975000   975000         0.54780946     0.45170063     423.8349       182.84605      240.98885      198.70927      298.79731     -163.68972     -573432.22     -571584.44      73050.88      -644635.32    
    976000   976000         0.54766715     0.42690807     438.15997      183.17576      254.98421      198.7609       299.88041      28.037207     -571281.62     -571598.11      73315.68      -644913.79    
    977000   977000         0.54751155     0.42822818     438.09281      183.89465      254.19816      198.81739      300.00209      109.25771     -570360.7      -571594.04      73345.429     -644939.47    
    978000   978000         0.54735264     0.4210839      440.85889      182.3479       258.51099      198.87511      299.77332     -231.65493     -574208.57     -571593.58      73289.499     -644883.08    
    979000   979000         0.54720078     0.41473591     445.16826      182.70048      262.46779      198.9303       299.86033      169.31126     -569683.91     -571595.15      73310.77      -644905.92    
    980000   980000         0.54704        0.42530837     438.70549      182.76222      255.94327      198.98877      300.27595     -116.18727     -572908.89     -571597.33      73412.383     -645009.71    
    981000   981000         0.54688039     0.42889278     433.08782      179.28356      253.80426      199.04684      298.82285     -2.940434      -571627.35     -571594.15      73057.125     -644651.28    
    982000   982000         0.54672539     0.43403107     432.50477      181.70518      250.79959      199.10327      300.00962      73.848406     -570761.51     -571595.13      73347.271     -644942.4     
    983000   983000         0.54656852     0.42745255     438.54327      183.88386      254.65941      199.16042      300.31618     -31.414334     -571954.56     -571599.95      73422.218     -645022.16    
    984000   984000         0.54642262     0.43917337     435.9935       188.13053      247.86297      199.21359      300.70014     -6.1719179     -571674.24     -571604.57      73516.091     -645120.66    
    985000   985000         0.54627894     0.4321678      437.59385      185.71294      251.8809       199.26599      300.44835     -234.61535     -574254.38     -571605.97      73454.532     -645060.5     
    986000   986000         0.54614168     0.44077378     428.99644      182.03344      246.963        199.31607      299.52163     -320.49478     -575204.2      -571586.35      73227.965     -644814.32    
    987000   987000         0.5460095      0.43427544     437.72094      187.06247      250.65847      199.36432      299.7178      -115.50325     -572903.64     -571599.8       73275.926     -644875.73    
    988000   988000         0.54587684     0.44416499     429.87054      184.79311      245.07743      199.41277      299.7434       148.48665     -569916.83     -571593         73282.184     -644875.18    
    989000   989000         0.54573906     0.42746102     437.56009      182.90572      254.65437      199.46312      300.4054      -12.759483     -571733.73     -571589.69      73444.03      -645033.72    
    990000   990000         0.54559326     0.44286525     434.83726      189.04057      245.7967       199.51642      300.01642     -2.4132942     -571627.13     -571599.89      73348.932     -644948.82    
    991000   991000         0.5454526      0.43166629     436.16195      183.98841      252.17354      199.56787      300.36842      147.28051     -569932.19     -571594.74      73434.989     -645029.73    
    992000   992000         0.54531043     0.42976749     435.22596      181.93827      253.28769      199.6199       299.85201      266.65967     -568580.64     -571590.78      73308.736     -644899.52    
    993000   993000         0.54517839     0.45028433     423.59548      181.84864      241.74684      199.66825      300.81927      17.243751     -571402.39     -571597.04      73545.215     -645142.25    
    994000   994000         0.54504704     0.44016385     430.06519      182.75997      247.30522      199.71637      299.52363     -75.535443     -572449.47     -571596.8       73228.454     -644825.26    
    995000   995000         0.54490574     0.42351617     437.7098       180.68344      257.02635      199.76816      300.10606     -134.08849     -573106.76     -571593.13      73370.848     -644963.97    
    996000   996000         0.5447644      0.42526255     438.16278      182.19193      255.97085      199.81999      300.27204      211.98768     -569201.54     -571594.52      73411.428     -645005.95    
    997000   997000         0.54461117     0.42698548     433.51615      178.57817      254.93798      199.87621      298.72799     -246.5751      -574374.1      -571590.68      73033.932     -644624.62    
    998000   998000         0.54444963     0.41947433     438.34175      178.83882      259.50292      199.93551      299.01824     -279.03291     -574748.05     -571598.24      73104.893     -644703.13    
    999000   999000         0.54429726     0.42789734     435.06881      180.67411      254.3947       199.99148      301.17045     -26.194658     -571900.62     -571604.92      73631.073     -645236       
   1000000   1000000        0.54413669     0.42018447     439.4182       180.35385      259.06435      200.0505       299.93799     -112.71378     -572877.59     -571605.25      73329.758     -644935       
   1001000   1001000        0.54398009     0.43204883     431.96305      180.01278      251.95026      200.10809      300.08278      192.34659     -569429.85     -571601.12      73365.157     -644966.28    
   1002000   1002000        0.54383669     0.43448636     429.24412      178.70734      250.53678      200.16085      298.96886     -300.55885     -574990.41     -571597.61      73092.82      -644690.43    
   1003000   1003000        0.54368676     0.44327157     429.70398      184.1326       245.57139      200.21605      299.98655      75.837794     -570742.86     -571598.94      73341.631     -644940.57    
   1004000   1004000        0.5435347      0.42701129     436.1465       181.22393      254.92257      200.27206      299.99498      135.74525     -570058.08     -571590.42      73343.69      -644934.11    
   1005000   1005000        0.54339349     0.44567319     425.53771      181.28964      244.24807      200.32411      299.65261     -1.0397834     -571619.47     -571607.74      73259.987     -644867.72    
   1006000   1006000        0.54325603     0.43939257     429.26249      181.52317      247.73932      200.37479      299.98426      100.65106     -570463.11     -571599.29      73341.069     -644940.36    
   1007000   1007000        0.54312112     0.42883826     432.85084      179.01432      253.83653      200.42457      299.56269      218.17339     -569134.3      -571597.11      73238.004     -644835.11    
   1008000   1008000        0.54297657     0.44287266     428.39098      182.5984       245.79258      200.47792      299.70005     -410.0269      -576217.51     -571589         73271.586     -644860.58    
   1009000   1009000        0.54282743     0.43568559     432.87932      183.03214      249.84718      200.533        300.38119     -121.44745     -572970.5      -571599.56      73438.112     -645037.67    
   1010000   1010000        0.54268327     0.43757932     431.88254      183.11663      248.76591      200.58627      300.6093       56.927024     -570952.51     -571595.12      73493.88      -645089       
   1011000   1011000        0.54254495     0.43517349     429.32272      179.18153      250.14119      200.63741      300.69013      161.52514     -569786.32     -571609.67      73513.643     -645123.31    
   1012000   1012000        0.54240845     0.43648341     429.88417      180.49367      249.3905       200.6879       300.49595     -65.61455      -572336.13     -571595.45      73466.17      -645061.62    
   1013000   1013000        0.54226705     0.43777835     429.66977      181.01696      248.65281      200.74024      299.79789     -429.7531      -576443.54     -571592.35      73295.504     -644887.85    
   1014000   1014000        0.54213223     0.42315808     438.2504       181.00655      257.24385      200.79016      300.76483     -241.35614     -574337.66     -571613.15      73531.906     -645145.06    
   1015000   1015000        0.54199154     0.42863672     431.93342      177.97754      253.95588      200.84228      300.03589     -213.97574     -574015.53     -571600.1       73353.693     -644953.8     
   1016000   1016000        0.54185703     0.42438123     435.19816      178.69573      256.50243      200.89213      300.85464      10.863279     -571483.34     -571605.97      73553.863     -645159.83    
   1017000   1017000        0.5417124      0.42625181     434.48447      179.10769      255.37678      200.94577      300.44898     -14.839809     -571762.17     -571594.65      73454.687     -645049.34    
   1018000   1018000        0.54157809     0.43713601     432.78545      183.76726      249.01818      200.9956       300.49996      9.9999504     -571482.77     -571595.65      73467.149     -645062.8     
   1019000   1019000        0.54143998     0.42786265     435.50053      181.0852       254.41533      201.04687      299.84357     -89.465639     -572614.84     -571604.93      73306.672     -644911.6     
   1020000   1020000        0.54130344     0.41911533     440.40683      180.68163      259.72521      201.09758      299.75364      437.32806     -566664.88     -571601.57      73284.687     -644886.26    
Loop time of 43159.1 on 32 procs for 1000000 steps with 82020 atoms

Performance: 2.002 ns/day, 11.989 hours/ns, 23.170 timesteps/s, 1.900 Matom-step/s
99.5% CPU use with 32 MPI tasks x 1 OpenMP threads

MPI task timing breakdown:
Section |  min time  |  avg time  |  max time  |%varavg| %total
---------------------------------------------------------------
Pair    | 19331      | 21807      | 25633      |1094.6 | 50.53
Bond    | 447.27     | 485.17     | 630.72     | 148.1 |  1.12
Kspace  | 12931      | 16506      | 19191      |1279.1 | 38.24
Neigh   | 2166.3     | 2208.3     | 2226.5     |  30.0 |  5.12
Comm    | 972.25     | 1346       | 1749.5     | 647.6 |  3.12
Output  | 0.12262    | 0.15289    | 0.39522    |  12.1 |  0.00
Modify  | 206.77     | 729.4      | 1217.7     |1248.0 |  1.69
Other   |            | 77.05      |            |       |  0.18

Nlocal:        2563.12 ave        2743 max        2391 min
Histogram: 2 2 4 5 6 4 1 2 3 3
Nghost:        17317.9 ave       18288 max       16572 min
Histogram: 3 6 6 4 1 3 1 0 4 4
Neighs:    1.56197e+06 ave 1.80895e+06 max 1.40062e+06 min
Histogram: 3 6 4 5 6 1 3 0 0 4

Total # of neighbors = 49982943
Ave neighs/atom = 609.39945
Ave special neighs/atom = 10.922214
Neighbor list builds = 55875
Dangerous builds = 0
Total wall time: 12:13:34
