units real
atom_style full
boundary p p p

# styles
pair_style lj/charmm/coul/long 8.0 12.0
kspace_style pppm 1e-6
dielectric 1.000000
bond_style harmonic
angle_style harmonic
dihedral_style fourier
improper_style cvff
special_bonds amber
pair_modify mix arithmetic
neighbor 2.0 bin
neigh_modify delay 0 every 1 check yes

# system definition
read_data ../final.data
Reading data file ...
  orthogonal box = (-25.800016 -24.079824 -155.73635) to (25.800016 24.079824 155.73635)
  2 by 2 by 8 MPI processor grid
  reading atoms ...
  82020 atoms
  reading velocities ...
  82020 velocities
  scanning bonds ...
  4 = max bonds/atom
  scanning angles ...
  6 = max angles/atom
  scanning dihedrals ...
  15 = max dihedrals/atom
  scanning impropers ...
  1 = max impropers/atom
  reading bonds ...
  84010 bonds
  reading angles ...
  150000 angles
  reading dihedrals ...
  219910 dihedrals
  reading impropers ...
  6000 impropers
Finding 1-2 1-3 1-4 neighbors ...
  special bond factors lj:    0        0        0.5     
  special bond factors coul:  0        0        0.8333333333333334
     4 = max # of 1-2 neighbors
    11 = max # of 1-3 neighbors
    22 = max # of 1-4 neighbors
    26 = max # of special neighbors
  special bonds CPU = 0.082 seconds
  read_data CPU = 1.225 seconds
# do not reset velocities

# vars
variable tLog equal 1000
variable nEvery equal 10
variable nRepeat equal 100
variable boolDump equal 0
variable tDump equal 1000

variable tPreeq equal 10000
variable tPrerun equal 10000
variable tTCrun equal 1000000

variable diffT_delay equal ${tPreeq}+${tPreeq}
variable diffT_delay equal 10000+${tPreeq}
variable diffT_delay equal 10000+10000
# heatflux of 0.05 give good results over 1 ns
variable heat_flux equal 0.05
variable heat_flux_neg equal -1*v_heat_flux

# defining region
variable hot_lo equal (lx*0)+xlo
variable hot_hi equal (lx*0.05)+xlo
variable cold_lo equal (lx*0.50)+xlo
variable cold_hi equal (lx*0.55)+xlo

print "DEBUG: ${hot_lo} ${hot_hi} ${cold_lo} ${cold_hi}"
DEBUG: -25.8000158555518 -23.2200142699966 0 2.58000158555518

# define heating and cooling block regions
region hot block ${hot_lo} ${hot_hi} INF INF INF INF units box
region hot block -25.8000158555518 ${hot_hi} INF INF INF INF units box
region hot block -25.8000158555518 -23.2200142699966 INF INF INF INF units box
region cold block ${cold_lo} ${cold_hi} INF INF INF INF units box
region cold block 0 ${cold_hi} INF INF INF INF units box
region cold block 0 2.58000158555518 INF INF INF INF units box
compute Thot all temp/region hot
compute Tcold all temp/region cold

# STEP 1 - 1st equilibration (nve)
# 1a - thermo output for md2
thermo_style custom step time temp c_Thot c_Tcold press enthalpy etotal ke pe
thermo_modify colname c_Thot Temp_hot colname c_Tcold Temp_cold
thermo_modify flush yes
thermo ${tLog}
thermo 1000

# 1b - nve equilibration
timestep 1.0
fix md2 all nve
run ${tPreeq}
run 10000
PPPM initialization ...
  using 12-bit tables for long-range coulomb (src/kspace.cpp:342)
  G vector (1/distance) = 0.27316341
  grid = 60 60 225
  stencil order = 5
  estimated absolute RMS force accuracy = 0.00037618852
  estimated relative force accuracy = 1.1328806e-06
  using double precision FFTW3
  3d grid and FFT values/proc = 47915 28800
Generated 120 of 120 mixed pair_coeff terms from arithmetic mixing rule
Neighbor list info ...
  update: every = 1 steps, delay = 0 steps, check = yes
  max neighbors/atom: 2000, page size: 100000
  master list distance cutoff = 14
  ghost atom cutoff = 14
  binsize = 7, bins = 8 7 45
  1 neighbor lists, perpetual/occasional/extra = 1 0 0
  (1) pair lj/charmm/coul/long, perpetual
      attributes: half, newton on
      pair build: half/bin/newton
      stencil: half/bin/3d
      bin: standard
Per MPI rank memory allocation (min/avg/max) = 39.81 | 40.44 | 41.45 Mbytes
   Step          Time           Temp         Temp_hot      Temp_cold        Press         Enthalpy        TotEng         KinEng         PotEng    
         0   0              300.41615      297.90249      299.08463      42.831017     -571123.67     -571607.16      73446.659     -645053.82    
      1000   1000           299.49981      296.98431      306.43024      1.2905042     -571587.4      -571601.97      73222.629     -644824.6     
      2000   2000           300.56516      299.722        303.00108     -464.25997     -576854.99     -571614.28      73483.09      -645097.37    
      3000   3000           300.4289       300.69139      303.13427     -11.421934     -571729.31     -571600.38      73449.777     -645050.15    
      4000   4000           300.33842      298.25056      300.21638     -42.000571     -572077.46     -571603.35      73427.657     -645031.01    
      5000   5000           300.34401      297.81592      305.25624      15.245438     -571436.74     -571608.83      73429.022     -645037.85    
      6000   6000           299.37306      298.89237      303.46682     -285.02193     -574806.31     -571588.89      73191.642     -644780.54    
      7000   7000           300.51432      294.67728      298.48471      181.1694      -569556.51     -571601.61      73470.661     -645072.27    
      8000   8000           299.59566      297.68368      299.5178       97.488514     -570490.78     -571591.26      73246.063     -644837.32    
      9000   9000           299.65547      296.13698      299.01187      183.10649     -569527.58     -571594.54      73260.686     -644855.23    
     10000   10000          300.62632      300.90582      297.78799     -125.15272     -573017.01     -571604.25      73498.043     -645102.29    
Loop time of 433.046 on 32 procs for 10000 steps with 82020 atoms

Performance: 1.995 ns/day, 12.029 hours/ns, 23.092 timesteps/s, 1.894 Matom-step/s
99.4% CPU use with 32 MPI tasks x 1 OpenMP threads

MPI task timing breakdown:
Section |  min time  |  avg time  |  max time  |%varavg| %total
---------------------------------------------------------------
Pair    | 196.46     | 218.83     | 258.6      | 103.4 | 50.53
Bond    | 4.45       | 4.8653     | 6.4248     |  16.1 |  1.12
Kspace  | 131.41     | 168.62     | 193.17     | 118.6 | 38.94
Neigh   | 20.31      | 20.71      | 20.892     |   3.0 |  4.78
Comm    | 9.3431     | 13.13      | 17.245     |  69.2 |  3.03
Output  | 0.0015577  | 0.004091   | 0.0060713  |   2.4 |  0.00
Modify  | 0.14188    | 0.17238    | 0.33832    |  11.1 |  0.04
Other   |            | 6.715      |            |       |  1.55

Nlocal:        2563.12 ave        2718 max        2410 min
Histogram: 1 4 4 3 6 4 1 3 4 2
Nghost:        17320.7 ave       18197 max       16810 min
Histogram: 8 6 5 1 2 2 0 0 4 4
Neighs:    1.56168e+06 ave 1.78154e+06 max 1.41866e+06 min
Histogram: 3 3 9 3 5 2 3 0 2 2

Total # of neighbors = 49973640
Ave neighs/atom = 609.28603
Ave special neighs/atom = 10.922214
Neighbor list builds = 518
Dangerous builds = 0
unfix md2

# STEP 2 - MD for thermal conductivity
# 2a - impose nve
fix md3 all nve

# 2b - impose heat flux
fix hot all ehex 1 ${heat_flux} region hot
fix hot all ehex 1 0.05 region hot
fix cold all ehex 1 ${heat_flux_neg} region cold
fix cold all ehex 1 -0.05 region cold

# 2c - calculate thermal profile
compute ke all ke/atom
variable temp atom c_ke/(1.5*0.001987204)

compute layers all chunk/atom bin/1d x lower 0.05 units reduced
fix bins all ave/chunk ${nEvery} ${nRepeat} ${tLog} layers v_temp file Tprofile_x_ehex.dat
fix bins all ave/chunk 10 ${nRepeat} ${tLog} layers v_temp file Tprofile_x_ehex.dat
fix bins all ave/chunk 10 100 ${tLog} layers v_temp file Tprofile_x_ehex.dat
fix bins all ave/chunk 10 100 1000 layers v_temp file Tprofile_x_ehex.dat

variable tdiff equal c_Thot-c_Tcold
fix ave all ave/time ${nEvery} ${nRepeat} ${tLog} v_tdiff ave running start ${diffT_delay}
fix ave all ave/time 10 ${nRepeat} ${tLog} v_tdiff ave running start ${diffT_delay}
fix ave all ave/time 10 100 ${tLog} v_tdiff ave running start ${diffT_delay}
fix ave all ave/time 10 100 1000 v_tdiff ave running start ${diffT_delay}
fix ave all ave/time 10 100 1000 v_tdiff ave running start 20000

# pre define kappa
variable kappa_inst equal 0
variable kappa equal 0

# 2d - thermo out
# dump dump_tc all custom 1000 dump.tc_x_ehex.lammpstrj id type mol x y z ix iy iz vx vy vz
thermo_style custom step time v_kappa v_kappa_inst c_Thot c_Tcold v_tdiff f_ave temp press enthalpy etotal ke pe
WARNING: New thermo_style command, previous thermo_modify settings will be lost (src/output.cpp:904)
thermo_modify colname v_kappa kappa colname v_kappa_inst kappa_inst colname c_Thot Temp_hot colname c_Tcold Temp_cold colname v_tdiff dTemp_step colname f_ave dTemp
thermo_modify flush yes
thermo ${tLog}
thermo 1000

# 2e - prerun
run ${tPrerun}
run 10000
PPPM initialization ...
  using 12-bit tables for long-range coulomb (src/kspace.cpp:342)
  G vector (1/distance) = 0.27316341
  grid = 60 60 225
  stencil order = 5
  estimated absolute RMS force accuracy = 0.00037618852
  estimated relative force accuracy = 1.1328806e-06
  using double precision FFTW3
  3d grid and FFT values/proc = 47915 28800
Generated 120 of 120 mixed pair_coeff terms from arithmetic mixing rule
Per MPI rank memory allocation (min/avg/max) = 40.91 | 41.57 | 42.45 Mbytes
   Step          Time          kappa        kappa_inst      Temp_hot      Temp_cold      dTemp_step       dTemp           Temp          Press         Enthalpy        TotEng         KinEng         PotEng    
     10000   10000          0              0              300.52827      297.78799      2.7402846      0              300.62632     -125.15272     -573017.01     -571604.25      73498.043     -645102.29    
     11000   11000          0              0              301.26947      298.42617      2.8433017      0              300.84357     -47.942217     -572143.75     -571602.56      73551.156     -645153.72    
     12000   12000          0              0              298.88211      304.0614      -5.1792939      0              301.29874     -190.93348     -573784.74     -571629.43      73662.439     -645291.86    
     13000   13000          0              0              299.94138      299.34328      0.5981019      0              301.22092     -461.90257     -576828.68     -571614.58      73643.412     -645257.99    
     14000   14000          0              0              304.22778      291.13528      13.092501      0              299.09093      98.013094     -570485.88     -571592.28      73122.667     -644714.94    
     15000   15000          0              0              298.1177       301.36505     -3.2473474      0              300.75382     -15.298404     -571779.3      -571606.6       73529.214     -645135.82    
     16000   16000          0              0              299.63359      290.32365      9.3099351      0              299.90333     -440.83643     -576579.95     -571603.65      73321.284     -644924.93    
     17000   17000          0              0              300.37928      295.33267      5.0466099      0              299.76634      84.213299     -570653.57     -571604.19      73287.791     -644891.98    
     18000   18000          0              0              308.98675      296.35629      12.630458      0              299.84954     -162.7904      -573441.67     -571604.04      73308.133     -644912.17    
     19000   19000          0              0              302.31949      289.11532      13.204169      0              299.661        57.543671     -570959.18     -571608.75      73262.038     -644870.79    
     20000   20000          0              0              307.30796      293.35838      13.949579      7.3972612      300.20984      420.27912     -566859.26     -571603.5       73396.221     -644999.72    
Loop time of 432.399 on 32 procs for 10000 steps with 82020 atoms

Performance: 1.998 ns/day, 12.011 hours/ns, 23.127 timesteps/s, 1.897 Matom-step/s
99.4% CPU use with 32 MPI tasks x 1 OpenMP threads

MPI task timing breakdown:
Section |  min time  |  avg time  |  max time  |%varavg| %total
---------------------------------------------------------------
Pair    | 193.38     | 217.49     | 257.31     | 105.7 | 50.30
Bond    | 4.4436     | 4.8713     | 6.4291     |  16.1 |  1.13
Kspace  | 130.97     | 168.43     | 194.64     | 121.1 | 38.95
Neigh   | 20.082     | 20.523     | 20.699     |   3.3 |  4.75
Comm    | 9.0019     | 12.958     | 17.029     |  70.6 |  3.00
Output  | 0.0020283  | 0.0021351  | 0.0024891  |   0.2 |  0.00
Modify  | 1.8911     | 7.3348     | 12.849     | 134.4 |  1.70
Other   |            | 0.7869     |            |       |  0.18

Nlocal:        2563.12 ave        2709 max        2444 min
Histogram: 4 4 4 5 2 4 2 1 2 4
Nghost:        17343.5 ave       18221 max       16839 min
Histogram: 7 8 4 1 3 1 0 1 3 4
Neighs:    1.56155e+06 ave 1.76819e+06 max 1.42078e+06 min
Histogram: 2 6 6 4 6 1 3 0 0 4

Total # of neighbors = 49969678
Ave neighs/atom = 609.23772
Ave special neighs/atom = 10.922214
Neighbor list builds = 518
Dangerous builds = 0

# 2f - calc kappa
variable kappa_inst equal (${heat_flux}/(ly*lz)/2.0)*(lx/2.0)/v_tdiff*69478.5785
variable kappa_inst equal (0.05/(ly*lz)/2.0)*(lx/2.0)/v_tdiff*69478.5785
variable kappa equal (${heat_flux}/(ly*lz)/2.0)*(lx/2.0)/f_ave*69478.5785
variable kappa equal (0.05/(ly*lz)/2.0)*(lx/2.0)/f_ave*69478.5785

# 2g - md run for kappa calculation
# optional traj dump
if "${boolDump} == 1" then     "dump tc_dump all atom ${tDump} dump.tc_x.lammpstrj"
run ${tTCrun}
run 1000000
PPPM initialization ...
  using 12-bit tables for long-range coulomb (src/kspace.cpp:342)
  G vector (1/distance) = 0.27316341
  grid = 60 60 225
  stencil order = 5
  estimated absolute RMS force accuracy = 0.00037618852
  estimated relative force accuracy = 1.1328806e-06
  using double precision FFTW3
  3d grid and FFT values/proc = 47915 28800
Generated 120 of 120 mixed pair_coeff terms from arithmetic mixing rule
Per MPI rank memory allocation (min/avg/max) = 41.41 | 42.09 | 42.95 Mbytes
   Step          Time          kappa        kappa_inst      Temp_hot      Temp_cold      dTemp_step       dTemp           Temp          Press         Enthalpy        TotEng         KinEng         PotEng    
     20000   20000          0.40386542     0.20067214     308.24584      293.35838      14.887458      7.3972612      300.20984      420.27914     -566859.26     -571603.5       73396.221     -644999.72    
     21000   21000          0.29786603     0.22864889     301.5362       288.47032      13.065876      10.02967       299.61758     -516.1416      -577423.61     -571597.24      73251.424     -644848.66    
     22000   22000          0.28404578     0.1480473      312.87849      292.69914      20.179347      10.517664      299.75664      293.28879     -568298.98     -571609.71      73285.42      -644895.13    
     23000   23000          0.28430416     0.24900027     303.88607      291.8881       11.997971      10.508105      299.63952      164.74858     -569739.84     -571599.58      73256.788     -644856.36    
     24000   24000          0.28613751     1.003383       301.7417       298.76428      2.9774254      10.440777      299.15488     -280.32932     -574758.68     -571594.23      73138.299     -644732.53    
     25000   25000          0.28897523     0.15941273     307.34804      288.60739      18.740649      10.33825       300.11164     -257.60483     -574506.77     -571598.84      73372.213     -644971.06    
     26000   26000          0.26693363     0.70067404     303.64649      299.38274      4.2637487      11.191913      299.27169     -186.80949     -573716.1      -571607.33      73166.858     -644774.19    
     27000   27000          0.26060057     0.1941288      304.84863      289.45937      15.389257      11.463897      299.92096      150.42004     -569911.99     -571609.97      73325.593     -644935.57    
     28000   28000          0.25391062     0.17401913     309.95548      292.78784      17.167641      11.765943      299.89153     -275.64853     -574716.31     -571604.7       73318.398     -644923.1     
     29000   29000          0.25007473     0.43673717     305.9673       299.12681      6.8404941      11.946421      298.81726      21.846344     -571344.74     -571591.35      73055.759     -644647.11    
     30000   30000          0.25054097     0.21340616     307.33835      293.33923      13.999118      11.92419       299.95839     -262.81532     -574571.01     -571604.27      73334.745     -644939.01    
     31000   31000          0.25258483     0.16454128     307.52347      289.36694      18.156526      11.827702      299.15311     -109.38297     -572844.76     -571610.01      73137.868     -644747.88    
     32000   32000          0.2537419      0.17660808     310.20565      293.28967      16.915976      11.773767      300.43654     -99.198138     -572726.9      -571607.12      73451.644     -645058.77    
     33000   33000          0.25332129     0.25944905     305.14073      293.62595      11.514777      11.793316      299.33876     -179.92109     -573642.61     -571611.61      73183.256     -644794.86    
     34000   34000          0.25454142     0.28938644     306.18794      295.86438      10.323559      11.736785      299.33535      9.1929608     -571499.3      -571603.08      73182.422     -644785.5     
     35000   35000          0.25255826     0.17609193     305.18321      288.21765      16.965558      11.828946      299.16487     -48.4172       -572144.48     -571597.93      73140.742     -644738.67    
     36000   36000          0.25123169     0.30722757     306.78228      297.05823      9.7240558      11.891406      299.97053      171.90126     -569670.57     -571611.05      73337.714     -644948.76    
     37000   37000          0.25183841     2.9631087      301.95397      300.94574      1.008231       11.862758      300.26502     -111.8094      -572870.32     -571608.18      73409.711     -645017.9     
     38000   38000          0.25212994     0.20640185     307.58367      293.10948      14.474182      11.849041      299.72946     -17.925664     -571809.01     -571606.66      73278.776     -644885.43    
     39000   39000          0.2515017      0.17223353     307.22915      289.88353      17.345624      11.878639      299.81524      376.00562     -567353.61     -571598.08      73299.747     -644897.83    
     40000   40000          0.24934675     0.38496773     305.45636      297.69598      7.7603856      11.981299      299.72445      178.71228     -569579.74     -571597.11      73277.551     -644874.66    
     41000   41000          0.24423143     0.11964694     315.10008      290.1308       24.96928       12.232242      300.09855      147.79027     -569940.85     -571609.16      73369.011     -644978.17    
     42000   42000          0.24113002     0.18473141     311.47585      295.30373      16.172117      12.389573      299.49187      78.353404     -570724.92     -571609.4       73220.688     -644830.09    
     43000   43000          0.23835532     0.22247747     304.48824      291.05992      13.428317      12.5338        300.64874     -156.66158     -573371.83     -571603.38      73503.523     -645106.91    
     44000   44000          0.23863697     2.2559924      305.07281      303.74856      1.32425        12.519008      300.49045     -4.1595679     -571652.98     -571606.03      73464.824     -645070.85    
     45000   45000          0.23929412     0.23712381     304.62025      292.02135      12.598895      12.484627      300.22776      82.192357     -570674.82     -571602.63      73400.601     -645003.23    
     46000   46000          0.23881309     0.32462846     308.13732      298.9345       9.2028221      12.509775      298.7163       109.38369     -570363.63     -571598.39      73031.075     -644629.46    
     47000   47000          0.2374351      0.19879288     312.31875      297.29055      15.028194      12.582377      299.61586     -41.504016     -572071.35     -571602.84      73251.002     -644853.84    
     48000   48000          0.23534761     0.26769867     308.6193       297.45937      11.159929      12.693981      300.03893     -51.393735     -572188.22     -571608.07      73354.434     -644962.5     
     49000   49000          0.23310828     0.1545007      315.38929      296.05282      19.33647       12.815924      300.06053      132.01989     -570115.54     -571605.82      73359.718     -644965.54    
     50000   50000          0.2319172      0.15399857     312.53727      293.13776      19.399517      12.881744      300.24731      65.053281     -570865.44     -571599.78      73405.382     -645005.16    
     51000   51000          0.22896936     0.17088446     307.10826      289.6257       17.482561      13.047589      299.1005      -158.07531     -573381.08     -571596.68      73125.005     -644721.69    
     52000   52000          0.22555853     0.19560075     308.99529      293.72185      15.273449      13.244891      300.1224       31.766608     -571249.75     -571608.35      73374.842     -644983.19    
     53000   53000          0.22292905     0.16213841     313.6836       295.258        18.425603      13.401116      299.12553     -288.5502      -574860.5      -571603.25      73131.125     -644734.37    
     54000   54000          0.22140715     0.10840898     320.48878      292.93112      27.557661      13.493232      300.67073     -179.26854     -573620.84     -571597.2       73508.899     -645106.09    
     55000   55000          0.22056413     0.15538989     309.72488      290.49906      19.22582       13.544804      299.9468       45.192136     -571090.64     -571600.78      73331.911     -644932.7     
     56000   56000          0.2180488      0.17617203     305.18771      288.22986      16.957845      13.701052      299.58726     -306.15263     -575060.41     -571604.47      73244.01      -644848.48    
     57000   57000          0.21529641     0.21428195     306.30546      292.36356      13.941902      13.876209      299.35147     -381.30303     -575906.43     -571602.16      73186.364     -644788.52    
     58000   58000          0.21332651     0.29316176     303.92503      293.73442      10.190613      14.004345      299.29888     -160.76489     -573411.99     -571597.23      73173.507     -644770.73    
     59000   59000          0.21357216     0.37237201     305.27428      297.2514       8.0228855      13.988237      300.30222     -492.00765     -577153.36     -571599.42      73418.806     -645018.22    
     60000   60000          0.21465928     0.25665845     305.69328      294.05331      11.639975      13.917395      301.50218     -76.947218     -572486.35     -571617.75      73712.175     -645329.92    
     61000   61000          0.21467717     0.25075446     305.96757      294.05354      11.914037      13.916235      300.44076      328.19079     -567896.17     -571600.89      73452.676     -645053.56    
     62000   62000          0.21574657     0.28943826     307.14936      296.82765      10.321711      13.847256      300.87765     -59.573619     -572277.73     -571605.25      73559.488     -645164.73    
     63000   63000          0.21586532     0.24453643     306.205        293.98802      12.216985      13.839639      300.18035     -221.59213     -574104.82     -571603.41      73389.01      -644992.42    
     64000   64000          0.21628903     0.21923728     307.72939      294.10261      13.626779      13.812527      299.97882      10.907566     -571475.97     -571599.1       73339.74      -644938.84    
     65000   65000          0.21644443     0.18232562     309.30943      292.92392      16.385509      13.80261       299.01528     -290.81439     -574875.95     -571593.14      73104.171     -644697.31    
     66000   66000          0.21702399     0.32247692     301.67824      292.41401      9.2642226      13.76575       299.51837      550.49402     -565377.15     -571591.3       73227.169     -644818.47    
     67000   67000          0.21653437     0.27110173     308.91536      297.89552      11.019841      13.796877      300.07262     -154.13747     -573340.45     -571600.5       73362.671     -644963.17    
     68000   68000          0.21611374     0.29644176     307.47445      297.3966       10.077858      13.82373       300.35929     -12.033557     -571732.31     -571596.47      73432.757     -645029.23    
     69000   69000          0.21579402     0.27502703     308.64296      297.78039      10.862561      13.844211      299.74396      318.95057     -567991.2      -571591.62      73282.32      -644873.94    
     70000   70000          0.21565814     0.19611861     305.23582      290.0027       15.233118      13.852934      299.264        498.06879     -565968.29     -571590.65      73164.979     -644755.63    
     71000   71000          0.2156217      0.14327121     308.78064      287.92859      20.852047      13.855275      299.8673       349.7641      -567659.6      -571607.85      73312.474     -644920.32    
     72000   72000          0.21522709     0.16830328     307.89518      290.1445       17.750682      13.880678      298.73723      128.1072      -570149.99     -571596.11      73036.193     -644632.3     
     73000   73000          0.21393526     0.13998518     311.77298      290.43145      21.341531      13.964495      300.2888       443.84276     -566593.38     -571603.61      73415.526     -645019.14    
     74000   74000          0.21354961     0.82019582     300.10678      296.46436      3.6424204      13.989714      300.15948      119.12267     -570260.09     -571604.78      73383.908     -644988.69    
     75000   75000          0.21392826     0.19744894     304.92006      289.78958      15.130484      13.964952      300.05851      254.26059     -568732.78     -571602.95      73359.222     -644962.17    
     76000   76000          0.21439141     0.36805463     305.6307       297.5137       8.1169961      13.934784      300.17263     -356.65811     -575633.41     -571607.34      73387.124     -644994.47    
     77000   77000          0.21494736     0.27567874     308.3844       297.54752      10.836882      13.898743      299.82135      99.597492     -570476.51     -571600.8       73301.24      -644902.04    
     78000   78000          0.21541246     0.16762259     312.72512      294.90235      17.822765      13.868734      299.70618     -47.592246     -572134.96     -571597.73      73273.083     -644870.81    
     79000   79000          0.2156466      0.22974514     309.62017      296.61664      13.003531      13.853676      300.28827     -255.58151     -574490.84     -571605.76      73415.395     -645021.15    
     80000   80000          0.21595926     0.3159842      305.71247      296.25789      9.4545804      13.833618      299.75544     -279.70662     -574759.95     -571602.54      73285.128     -644887.66    
     81000   81000          0.21511964     0.15798646     310.55535      291.64552      18.909835      13.887612      300.65476     -167.48489     -573492.42     -571601.8       73504.996     -645106.8     
     82000   82000          0.21461041     0.18495899     305.42387      289.27166      16.152218      13.920564      300.0793      -102.47926     -572761.35     -571604.53      73364.305     -644968.84    
     83000   83000          0.21408685     0.21628182     304.11535      290.30237      13.812987      13.954608      299.54683      143.98559     -569971.22     -571596.57      73234.126     -644830.7     
     84000   84000          0.21434349     0.42703235     303.38151      296.38555      6.9959525      13.937899      299.04642      1.4191386     -571586.29     -571602.31      73111.784     -644714.1     
     85000   85000          0.21402461     0.14967593     310.81145      290.85167      19.959776      13.958666      300.19843     -21.602969     -571834.41     -571590.55      73393.43      -644983.98    
     86000   86000          0.21415737     0.16355152     309.60706      291.34065      18.266403      13.950012      301.81969     -150.40973     -573316.14     -571618.27      73789.801     -645408.07    
     87000   87000          0.21348        0.13486772     309.32324      287.17192      22.15132       13.994276      300.62615     -68.760699     -572388.26     -571612.07      73498.001     -645110.07    
     88000   88000          0.21204623     0.17417371     307.2156       290.06319      17.152405      14.088899      299.88643     -494.43203     -577181.35     -571600.05      73317.151     -644917.2     
     89000   89000          0.21109352     0.15699355     309.03218      290.00275      19.029432      14.152486      300.33253     -242.42164     -574333.6      -571597.07      73426.217     -645023.28    
     90000   90000          0.21039218     0.12900171     316.653        293.49441      23.158592      14.199662      300.05741      142.89433     -569990.22     -571603.25      73358.953     -644962.21    
     91000   91000          0.20925401     0.18105297     308.36588      291.86519      16.500685      14.276897      299.49789      139.7582      -570017.28     -571594.91      73222.16      -644817.07    
     92000   92000          0.20849395     0.2041729      308.10742      293.47523      14.632196      14.328944      299.92656     -142.10241     -573202.27     -571598.17      73326.963     -644925.13    
     93000   93000          0.20834144     0.28538767     306.30823      295.84002      10.46821       14.339432      299.98264      235.54673     -568944.81     -571603.74      73340.673     -644944.41    
     94000   94000          0.20825989     0.21361252     306.85631      292.87071      13.985594      14.345048      300.63389     -133.81049     -573113.49     -571603         73499.894     -645102.89    
     95000   95000          0.20788455     0.22227365     308.4849       295.04427      13.44063       14.370947      300.66284      11.427484     -571473.39     -571602.39      73506.971     -645109.36    
     96000   96000          0.20705339     0.20375948     305.08932      290.42743      14.661885      14.428636      299.63243      219.96088     -569109.39     -571592.38      73255.054     -644847.44    
     97000   97000          0.20676615     0.28492462     306.01426      295.52904      10.485222      14.44868       300.59781     -510.85074     -577377.98     -571611.34      73491.072     -645102.41    
     98000   98000          0.20651338     0.21403244     306.30159      292.34344      13.958155      14.466365      300.58496      19.46298      -571375.27     -571594.98      73487.93      -645082.9     
     99000   99000          0.2063047      0.19914806     309.38971      294.38832      15.001391      14.480999      299.64642     -4.2986085     -571641.3      -571592.78      73258.474     -644851.25    
    100000   100000         0.20657387     0.41471691     306.41113      299.20743      7.2037043      14.462129      299.76803      39.244318     -571153.5      -571596.5       73288.206     -644884.71    
    101000   101000         0.20671414     0.13168411     312.02365      289.3368       22.686853      14.452316      300.35676     -195.82516     -573813.4      -571602.86      73432.138     -645035       
    102000   102000         0.20668014     0.33863501     304.51239      295.69021      8.822177       14.454693      300.19237     -164.27377     -573461.95     -571607.58      73391.949     -644999.53    
    103000   103000         0.20639608     0.16116249     307.80669      289.26951      18.53718       14.474587      299.98583      211.70069     -569206.96     -571596.7       73341.454     -644938.16    
    104000   104000         0.20644502     0.18073203     307.30516      290.77518      16.529987      14.471155      299.00777      149.29663     -569915.87     -571601.17      73102.334     -644703.51    
    105000   105000         0.20617896     0.22112317     308.67201      295.16145      13.510561      14.48983       300.72349      81.086576     -570697.02     -571612.35      73521.799     -645134.15    
    106000   106000         0.20586791     0.50006193     306.49004      300.51579      5.9742561      14.511722      299.94315      101.62456     -570442.04     -571589.21      73331.018     -644920.23    
    107000   107000         0.20569572     0.21924557     304.02212      290.39586      13.626264      14.52387       300.44485      290.1409      -568327.32     -571602.52      73453.675     -645056.2     
    108000   108000         0.20565514     0.29396769     303.84192      293.67924      10.162675      14.526737      299.92349     -289.91803     -574877.67     -571604.99      73326.212     -644931.2     
    109000   109000         0.20628659     0.14796999     307.94988      287.75999      20.189892      14.48227       299.40311     -433.95835     -576492.11     -571593.45      73198.989     -644792.44    
    110000   110000         0.20662603     0.34083721     301.71029      292.94511      8.7651756      14.458478      300.4564      -224.05535     -574131.24     -571602.03      73456.5       -645058.53    
    111000   111000         0.20667367     0.23876337     302.99069      290.47831      12.51238       14.455145      300.03561      195.68857     -569397.97     -571606.96      73353.624     -644960.59    
    112000   112000         0.20684238     0.20849014     306.90865      292.57944      14.329205      14.443355      299.14043      301.54173     -568195.36     -571599.26      73134.769     -644734.03    
    113000   113000         0.20723472     0.18737827     308.2142       292.27053      15.943674      14.416011      299.84071      144.82328     -569969.34     -571604.15      73305.973     -644910.12    
    114000   114000         0.20780609     0.17245004     307.64957      290.32572      17.323846      14.376374      300.38402     -387.11806     -575970.33     -571600.42      73438.805     -645039.22    
    115000   115000         0.20823811     0.37372479     304.09484      296.101        7.993845       14.346548      300.39067     -588.73458     -578245.18     -571599.36      73440.429     -645039.79    
    116000   116000         0.20856016     0.20186184     305.76084      290.96112      14.799717      14.324394      300.20867      90.991092     -570575.17     -571602.3       73395.935     -644998.24    
    117000   117000         0.20897143    -17.401152      297.34254      297.51422     -0.17168392     14.296203      299.90227      246.47955     -568818.2      -571600.54      73321.024     -644921.56    
    118000   118000         0.20954245     1.2792081      301.51261      299.17718      2.3354277      14.257244      300.9802       64.045054     -570884.17     -571607.13      73584.561     -645191.69    
    119000   119000         0.20976196     0.18414411     305.46484      289.24114      16.223696      14.242325      300.18457      95.544046     -570522.5      -571601.03      73390.041     -644991.07    
    120000   120000         0.20974231     0.16977404     308.11885      290.52194      17.596907      14.243659      301.25489     -243.88491     -574365.26     -571612.21      73651.717     -645263.93    
    121000   121000         0.20980535     0.23869361     304.0304       291.51436      12.516037      14.239379      300.18884      518.43845     -565746.51     -571598.81      73391.087     -644989.9     
    122000   122000         0.20998132     0.26878392     304.26174      293.14687      11.114869      14.227446      300.33591      204.61225     -569296.78     -571606.5       73427.042     -645033.55    
    123000   123000         0.20955859     0.20388102     310.45233      295.79919      14.653144      14.256147      300.14694     -508.95753     -577335.46     -571590.19      73380.841     -644971.03    
    124000   124000         0.20932277     0.45520581     309.21879      302.65583      6.562961       14.272208      300.07903      33.516007     -571228.73     -571607.07      73364.239     -644971.31    
    125000   125000         0.20920485     0.1129257      316.40866      289.95323      26.455431      14.280252      300.66874      38.743488     -571171.04     -571608.39      73508.413     -645116.8     
    126000   126000         0.20917479     0.13955395     310.80992      289.40244      21.407476      14.282304      299.97141      184.89938     -569518.23     -571605.44      73337.927     -644943.36    
    127000   127000         0.20887923     0.17951947     306.41386      289.77222      16.641637      14.302513      299.87534      365.36197     -567474.13     -571598.45      73314.44      -644912.89    
    128000   128000         0.20836368     0.15583815     307.73762      288.5671       19.170518      14.337902      299.83609     -45.857323     -572116.38     -571598.73      73304.845     -644903.57    
    129000   129000         0.20811354     0.17042219     308.14314      290.61315      17.529983      14.355135      299.96038      214.71985     -569175.48     -571599.31      73335.231     -644934.54    
    130000   130000         0.20802863     0.17847114     307.76235      291.02296      16.73939       14.360995      300.29241     -107.94012     -572831.97     -571613.51      73416.408     -645029.92    
    131000   131000         0.20761838     0.16255723     309.83453      291.45639      18.378131      14.389372      300.06331      268.63313     -568572.35     -571604.77      73360.396     -644965.16    
    132000   132000         0.20738377     0.139412       307.67615      286.24688      21.429275      14.40565       299.83143     -151.57841     -573313.36     -571602.3       73303.705     -644906       
    133000   133000         0.20762003     0.15676927     312.86713      293.81048      19.056656      14.389257      298.89125      715.20405     -563532.79     -571606.23      73073.846     -644680.08    
    134000   134000         0.20796014     0.28282883     299.17913      288.61621      10.562919      14.365724      299.40726      287.94163     -568345.51     -571595.89      73200.003     -644795.89    
    135000   135000         0.20806526     0.20115788     303.15636      288.30485      14.851508      14.358466      300.834        183.63417     -569530.25     -571603.17      73548.817     -645151.99    
    136000   136000         0.20792795     0.16136614     307.84786      289.33407      18.513785      14.367948      299.59838      134.33914     -570082.44     -571598.91      73246.728     -644845.63    
    137000   137000         0.20747692     0.11641366     312.53659      286.87381      25.66278       14.399182      299.08275      44.466401     -571091.02     -571592.97      73120.666     -644713.64    
    138000   138000         0.20771427     0.36857642     306.66045      298.55494      8.1055049      14.382729      299.95814      132.39986     -570108.01     -571602.58      73334.685     -644937.27    
    139000   139000         0.20768625     0.12953525     308.93931      285.8761       23.063205      14.384669      300.33506     -59.576645     -572284.08     -571611.56      73426.835     -645038.39    
    140000   140000         0.20738989     0.33653469     302.05181      293.17457      8.8772364      14.405225      300.74884     -20.572936     -571842.26     -571610.02      73527.996     -645138.02    
    141000   141000         0.20711412     0.14006055     307.51775      286.1877       21.330046      14.424405      299.89849     -194.69704     -573798.89     -571601.09      73320.101     -644921.19    
    142000   142000         0.20727488     0.20436159     306.23         291.61132      14.618687      14.413218      300.12853     -771.50354     -580310.86     -571601.88      73376.342     -644978.23    
    143000   143000         0.20726142     0.18097241     308.00339      291.49536      16.50803       14.414154      299.5407       75.593547     -570736.39     -571589.71      73232.626     -644822.34    
    144000   144000         0.20761839     0.25257181     304.80652      292.97821      11.828311      14.389371      299.07177     -294.82458     -574919.59     -571591.52      73117.982     -644709.5     
    145000   145000         0.20743989     0.13721304     310.1386       288.3659       21.772698      14.401752      300.29456     -19.840609     -571831.37     -571607.4       73416.933     -645024.33    
    146000   146000         0.20745982     0.20598712     307.66739      293.16407      14.503324      14.400369      299.95853     -163.73393     -573456.7      -571608.42      73334.778     -644943.2     
    147000   147000         0.2071374      0.11930086     307.87855      282.83683      25.041713      14.422784      299.36859      219.53031     -569122.56     -571600.69      73190.55      -644791.24    
    148000   148000         0.20685387     0.19080538     304.30596      288.64866      15.657305      14.442553      299.62454      188.69567     -569466.65     -571596.7       73253.124     -644849.83    
    149000   149000         0.20637926     0.14202827     308.33288      287.29835      21.034531      14.475767      299.8403      -188.80827     -573732.83     -571601.5       73305.874     -644907.37    
    150000   150000         0.20587727     0.57658958     301.85681      296.67549      5.181325       14.511063      298.93168      170.62255     -569684.67     -571610.71      73083.732     -644694.44    
    151000   151000         0.20579228     0.23684806     304.63579      292.02222      12.613563      14.517055      300.49708     -8.842251      -571704.33     -571604.51      73466.446     -645070.96    
    152000   152000         0.20549922     0.20960647     308.69469      294.4418       14.25289       14.537758      299.2333      -179.95266     -573631.68     -571600.32      73157.473     -644757.79    
    153000   153000         0.20519437     0.13999771     319.03033      297.69071      21.33962       14.559357      300.75588      785.49049     -562737.84     -571604.7       73529.719     -645134.42    
    154000   154000         0.20445063     0.16856229     303.0527       285.3293       17.723406      14.61232       299.84221      106.29384     -570397.41     -571597.29      73306.341     -644903.63    
    155000   155000         0.20416341     0.15640188     309.09176      289.99034      19.10142       14.632876      299.74883     -471.26266     -576920.01     -571600.25      73283.512     -644883.76    
    156000   156000         0.20398597     0.25898733     307.294        295.75869      11.535306      14.645605      300.96227      221.00069     -569123.8      -571618.52      73580.177     -645198.7     
    157000   157000         0.20378374     0.18933065     310.83073      295.05147      15.779262      14.660139      300.41623      97.238164     -570513.91     -571611.56      73446.679     -645058.24    
    158000   158000         0.20392859     0.11949665     309.33175      284.33107      25.000683      14.649726      300.13764     -18.430405     -571815.51     -571607.46      73378.569     -644986.03    
    159000   159000         0.20340574     0.13056797     306.83609      283.9553       22.880789      14.687383      300.38521      83.032022     -570673.69     -571610.98      73439.096     -645050.08    
    160000   160000         0.20299363     0.16289309     306.02223      287.68199      18.340238      14.717201      299.51345     -244.1857      -574357.36     -571600.92      73225.964     -644826.88    
    161000   161000         0.20235529     0.13830286     307.22512      285.62399      21.60113       14.763627      299.50988     -61.412904     -572288.77     -571595.53      73225.091     -644820.62    
    162000   162000         0.20208958     0.18130801     309.04934      292.57187      16.477473      14.783038      300.28192      38.534351     -571168.75     -571603.73      73413.842     -645017.58    
    163000   163000         0.20195264     0.23831491     305.74355      293.20762      12.535926      14.793062      300.27923      198.23117     -569372.24     -571609.93      73413.184     -645023.12    
    164000   164000         0.20187473     0.23866566     302.95485      290.43735      12.517502      14.798772      300.63111      130.50191     -570129.94     -571603.08      73499.215     -645102.3     
    165000   165000         0.20188745     0.24106488     306.50171      294.10879      12.392921      14.797839      301.18705     -222.42188     -574114.56     -571603.79      73635.131     -645238.92    
    166000   166000         0.20171907     0.13063623     315.44077      292.57194      22.868832      14.810192      301.43604     -152.38916     -573325.44     -571605.23      73696.004     -645301.23    
    167000   167000         0.20150413     0.3150925      306.83997      297.35864      9.4813365      14.825989      299.92417     -127.5639      -573043.79     -571603.81      73326.378     -644930.19    
    168000   168000         0.20141047     0.16298165     310.51671      292.18644      18.330272      14.832884      299.69132     -185.80555     -573705.15     -571607.71      73269.452     -644877.17    
    169000   169000         0.20151366     0.38211154     310.41854      302.60015      7.8183924      14.825288      300.40563     -91.394402     -572639.09     -571607.41      73444.086     -645051.49    
    170000   170000         0.20181187     0.2676842      305.26379      294.10326      11.160532      14.803381      300.15493     -160.77175     -573412.94     -571598.1       73382.796     -644980.89    
    171000   171000         0.20194363     0.38417917     302.33917      294.56286      7.7763143      14.793723      299.55997      116.08696     -570285.15     -571595.58      73237.338     -644832.92    
    172000   172000         0.20202166     0.17510511     312.96155      295.90038      17.06117       14.788009      300.5276       205.26322     -569283.82     -571600.9       73473.906     -645074.81    
    173000   173000         0.20207593     0.22546091     304.54372      291.2931       13.250625      14.784037      300.12526     -20.847473     -571840.12     -571604.78      73375.542     -644980.33    
    174000   174000         0.20190648     0.13988655     308.15218      286.7956       21.356579      14.796444      299.55405      372.71021     -567391.07     -571598.34      73235.89      -644834.23    
    175000   175000         0.20178241     0.16559535     307.16056      289.1196       18.040953      14.805542      300.67421     -88.743618     -572603.21     -571601.44      73509.75      -645111.19    
    176000   176000         0.20172362     0.1573052      307.19134      288.19961      18.99173       14.809857      299.95584      125.41814     -570195.08     -571610.84      73334.122     -644944.97    
    177000   177000         0.20168431     0.23268613     309.99613      297.15695      12.839175      14.812743      298.9707      -50.378463     -572165.56     -571596.87      73093.273     -644690.14    
    178000   178000         0.20174418     0.15281649     311.59856      292.04898      19.549578      14.808348      300.38064     -394.19949     -576062.59     -571612.74      73437.977     -645050.72    
    179000   179000         0.20154396     0.20770037     306.13896      291.75527      14.383691      14.823059      300.44252     -284.9279      -574816.06     -571599.7       73453.107     -645052.81    
    180000   180000         0.20150643     0.25171133     304.80662      292.93787      11.868747      14.82582       300.84226      190.83669     -569461.66     -571615.89      73550.836     -645166.72    
    181000   181000         0.20155312     0.1731626      310.25275      293.00019      17.252559      14.822386      299.45666      166.31382     -569730.48     -571607.89      73212.081     -644819.97    
    182000   182000         0.20180126     0.18525353     308.23203      292.1055       16.126537      14.804159      299.401        97.939736     -570499.32     -571604.89      73198.473     -644803.37    
    183000   183000         0.20167411     0.15836606     309.74953      290.88502      18.864509      14.813493      299.21612     -174.539       -573565.58     -571595.33      73153.271     -644748.6     
    184000   184000         0.2015011      0.16661838     307.20829      289.27811      17.930183      14.826212      300.1755      -361.41441     -575680.43     -571600.67      73387.826     -644988.5     
    185000   185000         0.20129165     0.14826718     312.24457      292.09515      20.149423      14.841639      300.89712      110.37246     -570369.34     -571615.26      73564.248     -645179.51    
    186000   186000         0.20117566     0.20861365     309.49563      295.17491      14.320722      14.850196      300.05966      266.70722     -568590.58     -571601.25      73359.504     -644960.76    
    187000   187000         0.20133577     0.2390854      307.87175      295.37622      12.495527      14.838387      300.17633      618.29688     -564620.59     -571600.12      73388.028     -644988.15    
    188000   188000         0.20127786     0.18973889     305.26127      289.51596      15.745312      14.842656      300.14098     -33.458071     -571984.06     -571606.37      73379.385     -644985.76    
    189000   189000         0.20133603     0.1740171      311.08243      293.91459      17.167841      14.838368      300.59444     -302.75552     -575024.55     -571606.95      73490.248     -645097.2     
    190000   190000         0.20122765     0.13080626     314.01044      291.17133      22.839106      14.846359      301.64136     -56.345082     -572252.64     -571616.6       73746.203     -645362.81    
    191000   191000         0.20129833     0.3808335      302.65019      294.80556      7.8446302      14.841146      299.47887      186.31203     -569498.4      -571601.55      73217.51      -644819.06    
    192000   192000         0.20153187     0.39362799     303.83697      296.24732      7.5896483      14.823948      299.89046     -320.92087     -575226.95     -571604.29      73318.138     -644922.43    
    193000   193000         0.20153475     0.16363674     313.19331      294.93642      18.25689       14.823736      299.55033     -396.51705     -576079.04     -571603.03      73234.982     -644838.02    
    194000   194000         0.2014903      0.17526176     308.22003      291.17411      17.04592       14.827006      300.10236     -129.15221     -573050.45     -571592.54      73369.944     -644962.49    
    195000   195000         0.20151571     0.21723495     304.75085      290.99846      13.752382      14.825137      300.462       -52.801371     -572212.52     -571616.48      73457.87      -645074.35    
    196000   196000         0.20132621     0.13078747     312.46173      289.61935      22.842386      14.839091      301.25482      165.87388     -569738.86     -571611.3       73651.7       -645263       
    197000   197000         0.20122227     0.17953667     306.9471       290.30706      16.640043      14.846756      299.13159     -156.15111     -573356.61     -571593.93      73132.606     -644726.53    
    198000   198000         0.20094388     0.1813978      312.69594      296.22663      16.469318      14.867325      299.68121      306.53297     -568138.25     -571598.49      73266.98      -644865.47    
    199000   199000         0.20065791     0.10087504     316.5655       286.94967      29.615829      14.888513      300.29686     -149.06544     -573293.75     -571611.05      73417.496     -645028.55    
    200000   200000         0.20052862     0.22591109     304.499        291.27478      13.22422       14.898112      299.90096      143.57533     -569983.36     -571604.09      73320.705     -644924.79    
    201000   201000         0.20050925     0.30458535     302.43559      292.62718      9.8084101      14.899552      300.18754      76.969761     -570732.33     -571601.19      73390.768     -644991.96    
    202000   202000         0.20047753     0.16194727     310.47117      292.02382      18.44735       14.901909      299.64474     -238.19725     -574293.21     -571604.36      73258.063     -644862.42    
    203000   203000         0.2005745      0.30589774     301.42093      291.6546       9.7663291      14.894705      300.48875      416.12815     -566909.72     -571607.1       73464.408     -645071.51    
    204000   204000         0.20098472     0.31123296     302.74428      293.14537      9.5989126      14.864304      300.08128      16.012506     -571413.13     -571593.88      73364.79      -644958.68    
    205000   205000         0.20132266     0.2684619      310.29842      299.17022      11.128201      14.839353      299.8186      -390.6223      -576013.55     -571604.08      73300.568     -644904.65    
    206000   206000         0.20153606     0.40787022     303.51192      296.18729      7.324629       14.82364       300.24345     -163.21493     -573446.97     -571604.54      73404.436     -645008.98    
    207000   207000         0.20177131     0.40337874     303.43079      296.0246       7.4061861      14.806357      300.19927      199.913       -569360.21     -571616.89      73393.635     -645010.52    
    208000   208000         0.20180601     0.24560571     301.69281      289.52902      12.163797      14.803811      300.83081     -434.64035     -576513.09     -571606.73      73548.038     -645154.77    
    209000   209000         0.20183887     0.13524899     311.29173      289.20286      22.088875      14.8014        299.80416     -155.077       -573354.56     -571604         73297.038     -644901.04    
    210000   210000         0.20177555     0.27381061     308.40682      297.49601      10.910819      14.806046      299.87818     -108.91652     -572840.51     -571611.03      73315.135     -644926.16    
    211000   211000         0.20176288     0.3660418      303.21874      295.05711      8.1616307      14.806975      299.9006      -371.18174     -575788        -571597.98      73320.617     -644918.6     
    212000   212000         0.20176522     0.35776807     306.86275      298.51237      8.3503762      14.806804      299.87349     -34.707591     -572004.03     -571612.24      73313.988     -644926.23    
    213000   213000         0.20171206     0.17451454     310.35154      293.23263      17.118906      14.810706      300.14848     -218.81847     -574079.09     -571609         73381.219     -644990.22    
    214000   214000         0.20190906     0.1906633      309.9704       294.30143      15.668972      14.796255      300.21883     -303.03278     -575024.24     -571603.51      73398.419     -645001.93    
    215000   215000         0.20206701     0.17741122     310.80711      293.96772      16.839397      14.78469       299.11513      172.51157     -569649.59     -571596.95      73128.583     -644725.53    
    216000   216000         0.20201941     0.17014914     307.50073      289.94262      17.558114      14.788173      300.20353      91.83873      -570569.52     -571606.23      73394.677     -645000.9     
    217000   217000         0.20197855     0.62172389     301.166        296.36082      4.8051845      14.791165      300.12263      49.212786     -571055.96     -571611.49      73374.9       -644986.38    
    218000   218000         0.20212663     0.18479894     309.6551       293.48889      16.166208      14.780329      300.04408      239.04672     -568908.81     -571607.25      73355.695     -644962.94    
    219000   219000         0.20228012     0.26581812     304.44957      293.21069      11.23888       14.769113      300.41501     -156.1423      -573363.35     -571600.76      73446.38      -645047.14    
    220000   220000         0.20238633     0.19002816     304.46499      288.74364      15.721344      14.761363      300.52662      281.74435     -568430.17     -571610.59      73473.668     -645084.26    
    221000   221000         0.20252507     0.15006256     309.24293      289.33458      19.90835       14.75125       300.06675      19.852035     -571377.19     -571601.29      73361.238     -644962.53    
    222000   222000         0.20256182     0.14874953     309.90977      289.82569      20.084083      14.748574      299.44971      568.60548     -565186.94     -571605.54      73210.382     -644815.92    
    223000   223000         0.20276192     0.77454443     297.01346      293.15636      3.8571035      14.734019      299.69082      98.334034     -570491.75     -571601.77      73269.329     -644871.1     
    224000   224000         0.20279061     0.17729246     310.52078      293.6701       16.850677      14.731935      300.22922      105.44168     -570405.74     -571596         73400.959     -644996.96    
    225000   225000         0.20302122     0.47274437     301.84028      295.5208       6.3194788      14.7152        299.89917      173.13983     -569634.42     -571588.88      73320.266     -644909.15    
    226000   226000         0.20318009     0.18664719     308.84811      292.84199      16.006124      14.703694      300.0165       217.33773     -569150.52     -571603.9       73348.953     -644952.85    
    227000   227000         0.2031323      0.2949473      306.66809      296.53917      10.128921      14.707154      300.40171     -216.92501     -574056.55     -571607.84      73443.129     -645050.96    
    228000   228000         0.20325851     0.23545446     306.46195      293.77373      12.68822       14.698022      299.64085     -168.13146     -573491.46     -571593.54      73257.111     -644850.65    
    229000   229000         0.20330382     0.16610054     311.45906      293.47298      17.986083      14.694746      299.7365       147.18638     -569934.29     -571595.78      73280.497     -644876.27    
    230000   230000         0.2033302      0.22940406     304.3868       291.36393      13.022864      14.69284       300.92181      167.28924     -569720.71     -571609.13      73570.285     -645179.41    
    231000   231000         0.20324244     0.11854675     308.59247      283.39146      25.201012      14.699184      299.61491      231.88497     -568987.63     -571605.22      73250.771     -644856       
    232000   232000         0.20324652     0.21983986     305.53552      291.94609      13.589428      14.698888      299.6966      -127.82579     -573035.29     -571592.35      73270.743     -644863.1     
    233000   233000         0.20315896     0.24381896     305.44918      293.19624      12.252935      14.705224      299.83617     -235.18643     -574245.93     -571591.07      73304.864     -644895.93    
    234000   234000         0.20302846     0.22462323     303.91279      290.61275      13.30004       14.714676      299.91672     -225.47268     -574139.88     -571594.68      73324.556     -644919.23    
    235000   235000         0.20289859     0.17369785     306.15072      288.95133      17.199396      14.724094      301.16586     -95.305824     -572686.03     -571610.19      73629.95      -645240.14    
    236000   236000         0.20274324     0.17261727     305.52009      288.21303      17.307063      14.735376      300.26411      85.487155     -570638.99     -571603.99      73409.487     -645013.48    
    237000   237000         0.20255051     0.19040441     307.95431      292.26403      15.690277      14.749398      300.18295      278.28354     -568463.4      -571604.75      73389.646     -644994.4     
    238000   238000         0.20231793     0.12816323     310.06062      286.75052      23.310102      14.766353      299.80273     -55.196055     -572219.73     -571596.66      73296.689     -644893.35    
    239000   239000         0.20204411     0.14372833     307.26126      286.47553      20.785728      14.786365      300.26929     -262.84146     -574565.53     -571598.49      73410.755     -645009.25    
    240000   240000         0.20166943     0.163247       309.85662      291.55614      18.300477      14.813837      300.3985      -177.70503     -573609.83     -571603.84      73442.345     -645046.18    
    241000   241000         0.2013503      0.24118768     304.95857      292.57196      12.386611      14.837316      299.04862     -304.51621     -575032.59     -571595.11      73112.322     -644707.44    
    242000   242000         0.20094578     0.18741245     309.0529       293.11213      15.940766      14.867185      300.46346     -83.399429     -572550.21     -571608.77      73458.226     -645067       
    243000   243000         0.20052144     0.17971667     306.675        290.05162      16.623377      14.898646      299.11414     -240.82515     -574315.08     -571596.57      73128.34      -644724.91    
    244000   244000         0.20016462     0.13249365     310.89658      288.34835      22.548235      14.925205      300.19115     -344.16214     -575485.69     -571600.68      73391.651     -644992.33    
    245000   245000         0.20007359     0.20112589     303.41968      288.56581      14.853871      14.931996      300.29005      98.957532     -570486.67     -571603.73      73415.831     -645019.57    
    246000   246000         0.19981616     0.12405668     312.93981      288.8581       24.081718      14.951233      300.1711      -126.85373     -573041.28     -571609.32      73386.748     -644996.06    
    247000   247000         0.19949841     0.20384412     311.44985      296.79406      14.655796      14.975047      300.30493     -117.99341     -572937.03     -571605.09      73419.467     -645024.55    
    248000   248000         0.19942947     0.26969127     303.33195      292.25448      11.077474      14.980223      300.69293      197.6557      -569371.13     -571602.33      73514.328     -645116.66    
    249000   249000         0.1994348      0.16114349     306.41222      287.87286      18.539365      14.979823      298.80221      146.43409     -569937.91     -571590.9       73052.078     -644642.98    
    250000   250000         0.19940492     0.1202182      313.3887       288.53807      24.850631      14.982068      300.17097      452.2964      -566502.33     -571608         73386.718     -644994.72    
    251000   251000         0.19924402     0.21251741     309.39596      295.33829      14.057663      14.994166      300.52417      163.82383     -569760.77     -571610.07      73473.067     -645083.14    
    252000   252000         0.19897235     0.11844028     312.62325      287.39959      25.223664      15.014639      299.63915     -95.248873     -572673.45     -571598.25      73256.697     -644854.95    
    253000   253000         0.19895857     0.27689223     301.61777      290.82838      10.789389      15.015679      299.78263      70.727243     -570796.96     -571595.35      73291.774     -644887.13    
    254000   254000         0.19885943     0.15611836     310.40777      291.27166      19.136109      15.023165      299.55288      4.6488558     -571549.16     -571601.64      73235.604     -644837.24    
    255000   255000         0.19872529     0.15269603     308.50515      288.94015      19.565001      15.033305      299.65139     -138.77549     -573165.2      -571598.66      73259.689     -644858.35    
    256000   256000         0.19859889     0.13251539     309.4302       286.88566      22.544536      15.042874      299.63292      187.62638     -569473.33     -571591.31      73255.173     -644846.49    
    257000   257000         0.19849881     0.2026715      306.57051      291.82992      14.740592      15.050458      299.97185     -4.6351945     -571654.22     -571601.89      73338.035     -644939.93    
    258000   258000         0.19850344     0.16176971     307.97386      289.50626      18.467599      15.050107      300.29739      230.72327     -568995.1      -571599.57      73417.624     -645017.2     
    259000   259000         0.19847122     0.14367489     308.01933      287.22587      20.793459      15.052551      300.78507      366.08208     -567476.75     -571609.2       73536.855     -645146.06    
    260000   260000         0.19845338     0.1808451      305.45872      288.93907      16.519651      15.053903      298.90995      106.36569     -570391.39     -571592.08      73078.42      -644670.5     
    261000   261000         0.19842652     0.13809512     314.20528      292.57166      21.633625      15.055941      301.26502      122.59107     -570229.66     -571613.51      73654.195     -645267.7     
    262000   262000         0.19846069     0.25577468     300.93763      289.25744      11.680194      15.053349      299.8805       183.28961     -569525.92     -571594.95      73315.703     -644910.65    
    263000   263000         0.19846415     0.68815576     304.70046      300.35915      4.3413107      15.053086      300.35565     -224.64752     -574146.28     -571610.39      73431.869     -645042.26    
    264000   264000         0.19851321     0.26764026     305.08497      293.92261      11.162364      15.049366      299.61724     -39.851745     -572042.43     -571592.57      73251.341     -644843.91    
    265000   265000         0.19852068     0.16835535     310.6982       292.953        17.745192      15.0488        301.67828      278.01822     -568477.24     -571615.6       73755.229     -645370.83    
    266000   266000         0.19854207     0.14375805     310.62347      289.84204      20.781431      15.047179      300.63994     -28.541523     -571927.08     -571604.9       73501.372     -645106.27    
    267000   267000         0.19861568     0.14897188     307.41993      287.36582      20.054106      15.041602      300.01971     -39.762209     -572047.07     -571598.22      73349.736     -644947.96    
    268000   268000         0.19850879     0.23748771     302.99145      290.41187      12.57959       15.049702      299.96796     -103.71419     -572773.68     -571602.92      73337.084     -644940.01    
    269000   269000         0.19841363     0.16917201     308.48059      290.82106      17.659529      15.056919      299.19789      71.819903     -570787.53     -571598.25      73148.816     -644747.07    
    270000   270000         0.19827033     0.29210531     303.8875       293.66003      10.227469      15.067801      299.14868      386.31433     -567239.93     -571600.77      73136.784     -644737.55    
    271000   271000         0.198079       0.13037997     308.69681      285.78303      22.91378       15.082356      300.66754      175.23665     -569626.81     -571604.94      73508.12      -645113.06    
    272000   272000         0.19785512     0.10053225     311.63096      281.91415      29.716813      15.099423      299.86776      66.729365     -570843.53     -571596.8       73312.586     -644909.38    
    273000   273000         0.19758441     0.15023714     315.23959      295.35438      19.885216      15.12011       300.30187     -344.53052     -575497.48     -571608.31      73418.72      -645027.03    
    274000   274000         0.19721969     0.23802425     307.23414      294.6829       12.551234      15.148071      299.16286     -260.5087      -574540.89     -571600.19      73140.25      -644740.44    
    275000   275000         0.19703203     0.20591897     305.28691      290.77879      14.508124      15.162499      299.98046      84.141042     -570661.16     -571610.97      73340.14      -644951.11    
    276000   276000         0.19673873     0.24418931     309.34586      297.11151      12.234352      15.185103      300.84334      426.51377     -566791.81     -571606.43      73551.1       -645157.53    
    277000   277000         0.19655469     0.13917008     314.95027      293.48375      21.466525      15.199322      299.73443     -187.77608     -573725.53     -571605.85      73279.991     -644885.85    
    278000   278000         0.19647629     0.30560518     304.88169      295.10601      9.7756784      15.205387      300.32234     -75.620911     -572448.54     -571594.9       73423.725     -645018.63    
    279000   279000         0.19647046     0.17675361     312.00305      295.10101      16.902048      15.205838      301.3438      -221.082       -574108.76     -571613.11      73673.455     -645286.57    
    280000   280000         0.19638797     0.24302857     308.23683      295.94404      12.292785      15.212225      302.16354     -417.22992     -576330.67     -571620.84      73873.868     -645494.71    
    281000   281000         0.19612995     0.11871442     312.06621      286.9008       25.165418      15.232237      300.06634      196.78464     -569381.34     -571602.71      73361.137     -644963.85    
    282000   282000         0.19577733     0.18696694     307.16305      291.1843       15.97875       15.259673      300.8136       314.09476     -568060.36     -571605.96      73543.83      -645149.79    
    283000   283000         0.19562969     0.16407885     306.49403      288.28634      18.207698      15.271189      299.90994      243.11016     -568858.38     -571602.68      73322.9       -644925.58    
    284000   284000         0.19556837     0.13162709     311.29688      288.6002       22.69668       15.275977      299.7019      -2.3880674     -571631.83     -571604.88      73272.036     -644876.91    
    285000   285000         0.19544307     0.30795939     307.88768      298.18673      9.7009479      15.285771      299.99988     -187.66944     -573726.73     -571608.26      73344.889     -644953.15    
    286000   286000         0.1953957      0.1466479      309.11963      288.74772      20.371912      15.289477      299.43566     -468.58889     -576884.54     -571594.96      73206.946     -644801.91    
    287000   287000         0.1953059      0.16056808     313.14623      294.54043      18.605802      15.296506      300.52604      214.043       -569196.32     -571612.51      73473.525     -645086.03    
    288000   288000         0.19529128     0.16336946     310.79396      292.5072       18.286759      15.297652      300.17985     -327.70521     -575307.71     -571608.47      73388.887     -644997.36    
    289000   289000         0.19526919     0.17613293     308.06658      291.10497      16.96161       15.299382      299.97402      138.83299     -570031.36     -571598.56      73338.566     -644937.12    
    290000   290000         0.19516419     0.15682238     307.8942       288.84399      19.050202      15.307613      300.31675      221.75843     -569095.98     -571599.26      73422.358     -645021.62    
    291000   291000         0.1950581      0.13684183     312.93134      291.09958      21.831759      15.315939      300.89818      322.77412     -567967.12     -571610.69      73564.507     -645175.2     
    292000   292000         0.19481797     0.15072303     306.6359       286.81479      19.821111      15.334818      300.52803      132.30884     -570110.59     -571604.13      73474.012     -645078.15    
    293000   293000         0.19464729     0.18839704     307.12848      291.27103      15.857457      15.348264      300.66126      103.39602     -570438.87     -571606.03      73506.584     -645112.62    
    294000   294000         0.19456359     0.11657518     314.24681      288.61959      25.627222      15.354867      300.09916     -443.68957     -576608.08     -571599.57      73369.162     -644968.73    
    295000   295000         0.19450162     0.15358038     313.43911      293.98676      19.452341      15.359759      300.93587     -57.175399     -572255.51     -571610.1       73573.723     -645183.82    
    296000   296000         0.19452103     0.33375749     308.80981      299.85871      8.9511039      15.358226      299.47151     -413.8368      -576272.41     -571600.89      73215.711     -644816.6     
    297000   297000         0.19456279     0.17783213     310.43347      293.63393      16.79954       15.35493       300.45339      249.9801      -568784.03     -571605.88      73455.763     -645061.65    
    298000   298000         0.19453184     0.33942884     301.35726      292.55571      8.8015444      15.357373      299.56036     -157.97153     -573380.54     -571597.31      73237.433     -644834.74    
    299000   299000         0.19447874     0.21727921     309.05457      295.30499      13.749581      15.361566      299.04788      50.462653     -571021.2      -571590.84      73112.142     -644702.98    
    300000   300000         0.19448853     0.12976057     312.70653      289.68337      23.023158      15.360793      300.71551     -537.23013     -577672.42     -571607.99      73519.847     -645127.84    
    301000   301000         0.19454773     0.1899825      308.17497      292.44984      15.725122      15.356119      299.65269      193.12282     -569423.76     -571603.79      73260.006     -644863.8     
    302000   302000         0.1946663      0.22717545     310.41814      297.26752      13.15062       15.346765      302.01757     -96.449435     -572698.15     -571609.39      73838.179     -645447.57    
    303000   303000         0.19481359     0.23166673     308.58742      295.69175      12.895671      15.335162      300.27341     -169.86094     -573512.66     -571595.22      73411.761     -645006.98    
    304000   304000         0.19490092     0.14834228     315.44405      295.30483      20.139221      15.328291      300.18362      308.80274     -568128.31     -571614.17      73389.81      -645003.98    
    305000   305000         0.1949594      0.16714584     310.05753      292.18393      17.8736        15.323693      299.67377     -205.31098     -573926.87     -571609.25      73265.161     -644874.41    
    306000   306000         0.19498285     0.22660981     304.58097      291.39753      13.183445      15.32185       300.34856     -13.838372     -571771.1      -571614.88      73430.134     -645045.02    
    307000   307000         0.19491658     0.18868022     307.95905      292.12539      15.833657      15.327059      299.58865     -189.32771     -573733.04     -571595.85      73244.35      -644840.2     
    308000   308000         0.19480977     0.18553572     309.2942       293.19219      16.10201       15.335463      300.42768      523.40037     -565705.56     -571613.86      73449.478     -645063.34    
    309000   309000         0.19480011     0.14971586     306.42539      286.47094      19.954452      15.336224      299.49958     -91.799409     -572638.34     -571602.08      73222.574     -644824.65    
    310000   310000         0.19473828     0.30993305     306.14693      296.50775      9.6391722      15.341092      300.50659      351.23504     -567629.23     -571594.09      73468.77      -645062.86    
    311000   311000         0.19458263     0.22764744     308.582        295.45864      13.123354      15.353364      300.68323     -174.07044     -573573.98     -571609.01      73511.957     -645120.97    
    312000   312000         0.19454907     0.15384977     310.03346      290.61518      19.41828       15.356013      300.89288     -116.62264     -572926.06     -571609.59      73563.211     -645172.8     
    313000   313000         0.19447791     0.25698454     302.22371      290.59851      11.625205      15.361632      300.86365      109.71161     -570370.44     -571608.89      73556.065     -645164.96    
    314000   314000         0.19452505     0.39428405     304.66375      297.08673      7.5770196      15.357909      300.30437     -139.17346     -573172.72     -571601.69      73419.332     -645021.02    
    315000   315000         0.19454152     0.15567788     309.63157      290.44132      19.190254      15.356608      300.61232     -187.34898     -573718.21     -571603.36      73494.619     -645097.98    
    316000   316000         0.19463016     0.61339098     303.79202      298.92156      4.8704629      15.349615      300.5266      -138.55427     -573165.12     -571601.08      73473.663     -645074.74    
    317000   317000         0.19462912     0.31701771     304.53583      295.11207      9.4237574      15.349697      301.27396     -39.446691     -572057.3      -571612.01      73656.38      -645268.39    
    318000   318000         0.1947795      0.32587906     300.70577      291.53826      9.1675053      15.337846      299.4033       138.09711     -570046.38     -571605.26      73199.034     -644804.29    
    319000   319000         0.19496576     0.22845445     300.95464      287.87764      13.076996      15.323193      300.20419      5.01491       -571540.16     -571596.77      73394.839     -644991.61    
    320000   320000         0.19507617     0.36098353     300.96519      292.68919      8.2759953      15.314521      299.08426     -28.186382     -571912.39     -571594.22      73121.034     -644715.25    
    321000   321000         0.19519421     0.19574457     310.02624      294.76401      15.262227      15.305259      301.09053     -428.93823     -576450.94     -571608.95      73611.533     -645220.48    
    322000   322000         0.19523693     0.28079594     299.51248      288.87309      10.639392      15.30191       298.66905     -72.721278     -572411.62     -571590.72      73019.523     -644610.24    
    323000   323000         0.19534909     0.2392881      305.19479      292.70985      12.484942      15.293125      301.62757     -111.80624     -572878.29     -571616.19      73742.83      -645359.02    
    324000   324000         0.19537532     0.29050631     311.24287      300.95911      10.283763      15.291071      300.53092     -444.96881     -576625.21     -571602.26      73474.719     -645076.98    
    325000   325000         0.19543364     0.18647102     311.2106       295.18935      16.021246      15.286508      299.56343      353.76053     -567606.77     -571600.14      73238.184     -644838.32    
    326000   326000         0.19554211     0.29609981     304.17349      294.08399      10.089497      15.278029      299.51482      46.299127     -571071.65     -571594.29      73226.299     -644820.59    
    327000   327000         0.19559201     0.20798121     299.50601      285.14174      14.364269      15.274131      299.2415      -143.62316     -573218.14     -571596.87      73159.477     -644756.35    
    328000   328000         0.19567213     0.1553829      310.71857      291.49189      19.226685      15.267877      300.2042      -250.42321     -574431.33     -571604.47      73394.842     -644999.31    
    329000   329000         0.19579569     0.50049655     301.68759      295.71852      5.9690681      15.258242      300.93063      8.739841      -571501.58     -571600.24      73572.441     -645172.68    
    330000   330000         0.19583447     0.17945091     308.94211      292.29411      16.647995      15.255221      299.74062     -195.17501     -573804.09     -571600.89      73281.504     -644882.4     
    331000   331000         0.19589188     0.28749643     302.9786       292.58717      10.391426      15.25075       299.90096     -14.246111     -571766.07     -571605.25      73320.704     -644925.96    
    332000   332000         0.19579446     0.15716536     312.55449      293.54586      19.008629      15.258338      300.37258      119.68168     -570255.87     -571606.87      73436.008     -645042.88    
    333000   333000         0.19572393     0.20040071     309.15871      294.25108      14.907621      15.263836      300.5727       118.45082     -570259.99     -571597.1       73484.934     -645082.03    
    334000   334000         0.19562642     0.2314415      303.12785      290.21963      12.908221      15.271444      299.95949      97.019072     -570511.88     -571607.06      73335.013     -644942.08    
    335000   335000         0.19565551     0.17782373     302.31133      285.511        16.800334      15.269173      299.45956      103.22423     -570426.86     -571592.09      73212.789     -644804.88    
    336000   336000         0.19560238     0.26674442     306.33973      295.13987      11.199852      15.273321      300.73812      249.43399     -568791.9      -571607.59      73525.376     -645132.96    
    337000   337000         0.19557176     0.14482959     314.35482      293.72715      20.627677      15.275713      299.43753     -99.522846     -572724.96     -571601.51      73207.405     -644808.91    
[...]
    931000   931000         0.18977075     0.23133119     310.01882      297.10445      12.914376      15.742669      300.70899     -17.966158     -571804.39     -571601.59      73518.253     -645119.84    
    932000   932000         0.18981484     1.6454418      304.30788      302.49226      1.8156206      15.739012      300.70901     -249.77764     -574411.62     -571592.05      73518.258     -645110.31    
    933000   933000         0.18983526     0.2277322      306.43524      293.31677      13.11847       15.737319      300.88543     -665.00814     -579120.08     -571613.26      73561.391     -645174.65    
    934000   934000         0.18984843     0.16128178     310.29778      291.77431      18.523468      15.736227      300.31553     -208.08746     -573939.16     -571590.2       73422.061     -645012.26    
    935000   935000         0.18983678     0.11110366     317.03279      290.1435       26.889285      15.737193      301.4326       220.66374     -569121.12     -571612.04      73695.163     -645307.2     
    936000   936000         0.18985886     0.16627421     305.57464      287.60734      17.967296      15.735362      300.33343     -239.25423     -574298.12     -571597.34      73426.437     -645023.78    
    937000   937000         0.18986106     0.207263       307.64538      293.23134      14.414044      15.735181      300.91534     -512.05564     -577390.44     -571610.19      73568.703     -645178.89    
    938000   938000         0.18984648     0.18334605     307.10842      290.81411      16.294314      15.736388      301.01929      193.27714     -569422.62     -571604.39      73594.116     -645198.5     
    939000   939000         0.18980816     0.2116477      305.77115      291.65573      14.115429      15.739565      300.59581     -183.29396     -573664.55     -571595.47      73490.583     -645086.06    
    940000   940000         0.18977574     0.23093055     308.04258      295.1058       12.936781      15.742255      301.92331      586.65178     -564979.85     -571602.16      73815.134     -645417.29    
    941000   941000         0.18979094     0.26750473     311.71206      300.54404      11.168019      15.740993      300.69677      114.47876     -570303.73     -571596.01      73515.265     -645111.27    
    942000   942000         0.18976153     0.12879179     312.83567      289.63933      23.196339      15.743434      300.9375       95.696913     -570520.19     -571600.45      73574.12      -645174.56    
    943000   943000         0.18972483     0.18653153     305.95447      289.93842      16.016048      15.746478      300.15845     -359.80229     -575657.98     -571596.42      73383.656     -644980.07    
    944000   944000         0.18964609     0.10062485     319.30698      289.61751      29.689465      15.753016      300.59292     -53.938804     -572216.89     -571608.01      73489.876     -645097.88    
    945000   945000         0.18956325     0.10572216     314.00792      285.74991      28.258011      15.759901      300.44783     -230.31446     -574199.46     -571599.6       73454.404     -645054       
    946000   946000         0.1895212      0.19253852     305.25778      289.74142      15.516365      15.763397      300.77299      12.983163     -571448.37     -571594.93      73533.9       -645128.83    
    947000   947000         0.18953078     0.17440737     310.74938      293.61995      17.129425      15.762601      300.4479      -161.29424     -573427.67     -571606.93      73454.421     -645061.35    
    948000   948000         0.18949993     0.21421102     305.62495      291.67844      13.946519      15.765167      300.91572     -113.77322     -572887.98     -571603.67      73568.795     -645172.46    
    949000   949000         0.18946156     0.16269084     308.33387      289.97083      18.363038      15.76836       300.54441     -68.288874     -572374.07     -571603.2       73478.017     -645081.22    
    950000   950000         0.18943581     0.12486224     315.37226      291.44591      23.926354      15.770503      300.06915     -56.756569     -572237.21     -571596.52      73361.825     -644958.35    
    951000   951000         0.18940488     0.2015024      312.07526      297.24914      14.826116      15.773078      300.31561     -88.166045     -572597.42     -571602.17      73422.08      -645024.25    
    952000   952000         0.18938679     0.17214934     309.75294      292.39884      17.354107      15.774585      301.67659     -197.25674     -573837.31     -571610.62      73754.815     -645365.43    
    953000   953000         0.18931486     0.12402828     317.24635      293.15912      24.087233      15.780578      300.98734     -318.0283      -575188.39     -571598.38      73586.306     -645184.69    
    954000   954000         0.18929939     0.19650567     312.18378      296.98066      15.203113      15.781868      300.95263      14.06146      -571451.6      -571610.33      73577.82      -645188.15    
    955000   955000         0.1893114      0.17541969     313.00112      295.97054      17.030574      15.780867      301.51552      176.15893     -569616.62     -571605.15      73715.438     -645320.59    
    956000   956000         0.18935588     0.18330098     307.44463      291.14631      16.29832       15.77716       300.4777       63.41893      -570888.93     -571604.82      73461.708     -645066.53    
    957000   957000         0.18936976     0.21882595     309.71068      296.05829      13.652394      15.776004      301.21723     -421.78213     -576365.14     -571603.93      73642.511     -645246.44    
    958000   958000         0.1893576      0.17825158     312.76891      296.0089       16.760008      15.777016      301.01828     -152.22793     -573315.79     -571597.4       73593.87      -645191.27    
    959000   959000         0.18936857     0.22130944     303.98176      290.48257      13.499189      15.776103      299.65671     -94.821042     -572664.86     -571594.49      73260.99      -644855.48    
    960000   960000         0.18937191     0.19917237     306.49761      291.49805      14.99956       15.775824      300.23371     -152.95267     -573316.33     -571589.75      73402.055     -644991.81    
    961000   961000         0.18932814     0.16699527     308.0183       290.12858      17.889717      15.779472      300.4254      -280.56835     -574769.71     -571602.57      73448.921     -645051.49    
    962000   962000         0.18929696     0.1730938      311.30943      294.05001      17.259416      15.78207       301.89227     -68.110318     -572375.43     -571606.58      73807.545     -645414.12    
    963000   963000         0.18926203     0.11822377     317.77989      292.51003      25.269859      15.784983      301.12485     -932.67765     -582131.24     -571602.88      73619.926     -645222.81    
    964000   964000         0.18923932     0.1355508      314.78638      292.74669      22.039693      15.786878      299.70566      255.73402     -568711.31     -571598.12      73272.956     -644871.07    
    965000   965000         0.18921065     0.12644876     313.6985       290.07235      23.626155      15.78927       300.32945     -270.23054     -574652.61     -571602.16      73425.464     -645027.62    
    966000   966000         0.18918661     0.16883037     311.88461      294.18934      17.695264      15.791276      300.71891      156.86017     -569829.19     -571599.88      73520.68      -645120.56    
    967000   967000         0.18914341     0.19275252     311.7019       296.20276      15.499138      15.794882      300.77901      67.95171      -570835.47     -571602.54      73535.373     -645137.91    
    968000   968000         0.18912136     0.25367974     310.37485      298.5982       11.776652      15.796724      300.37917     -571.33295     -578048.86     -571599.47      73437.618     -645037.09    
    969000   969000         0.18911057     0.17770916     306.85533      290.04417      16.811165      15.797625      300.75693     -227.72783     -574176.27     -571605.61      73529.974     -645135.58    
    970000   970000         0.1891275      0.41945421     307.81925      300.69691      7.1223459      15.796211      300.67445     -566.51317     -578010.14     -571615.16      73509.809     -645124.97    
    971000   971000         0.18915347     0.21668403     303.5417       289.75435      13.787347      15.794043      300.98659     -138.80484     -573182.14     -571615.27      73586.121     -645201.39    
    972000   972000         0.18912229     0.20503587     314.1687       299.59808      14.570611      15.796647      301.45288     -230.00611     -574200.42     -571604.04      73700.124     -645304.16    
    973000   973000         0.189061       0.11598601     314.39906      288.64166      25.757399      15.801767      300.43135      127.3553      -570166.16     -571603.79      73450.376     -645054.16    
    974000   974000         0.18897987     0.11372615     317.85798      291.58876      26.269227      15.808551      301.65628      507.43276     -565869.51     -571597.57      73749.851     -645347.42    
    975000   975000         0.18890493     0.13248162     309.77532      287.22504      22.550283      15.814823      300.4374       26.964855     -571296.24     -571600.63      73451.854     -645052.48    
    976000   976000         0.18881987     0.21979036     304.15675      290.56426      13.592489      15.821948      301.79766     -432.47566     -576494.94     -571613.02      73784.416     -645397.44    
    977000   977000         0.18876981     0.1910113      308.14209      292.50166      15.640426      15.826143      301.65327     -325.22091     -575280.23     -571609.03      73749.115     -645358.14    
    978000   978000         0.18873876     0.15931473     311.85479      293.10262      18.752177      15.828747      301.0798      -464.75046     -576846.9      -571600.65      73608.911     -645209.56    
    979000   979000         0.18871574     0.12494687     311.55793      287.64778      23.910147      15.830678      300.52156     -78.007715     -572492.2      -571611.63      73472.429     -645084.06    
    980000   980000         0.18868649     0.12803239     313.60502      290.27109      23.333924      15.833132      300.7296       174.41713     -569641.06     -571609.94      73523.293     -645133.23    
    981000   981000         0.18868838     0.15168505     311.18667      291.49126      19.695402      15.832973      300.38216      44.337576     -571107.92     -571608.42      73438.35      -645046.77    
    982000   982000         0.18869305     0.15493385     306.09995      286.81754      19.28241       15.832581      300.83439      90.090071     -570582.95     -571599.92      73548.912     -645148.83    
    983000   983000         0.18863487     0.18398987     300.45003      284.21274      16.237296      15.837465      300.2094      -114.93448     -572903.59     -571606.17      73396.114     -645002.29    
    984000   984000         0.1886281      0.3625495      302.73894      294.49869      8.2402485      15.838032      301.37288     -130.05861     -573069.25     -571601.11      73680.564     -645281.67    
    985000   985000         0.18862057     0.22727826     305.23763      292.09296      13.144671      15.838664      301.06275     -30.920116     -571953.23     -571604.19      73604.742     -645208.94    
    986000   986000         0.18861751     0.11464368     313.84055      287.78156      26.058986      15.838922      301.14087     -80.458238     -572516.24     -571608         73623.842     -645231.85    
    987000   987000         0.18858639     0.17903703     303.81955      287.13307      16.686481      15.841536      300.40315     -193.2957      -573781.42     -571599.44      73443.482     -645042.92    
    988000   988000         0.18858121     0.22615194     308.85152      295.64138      13.210137      15.84197       300.88542     -180.11849     -573633.21     -571599.97      73561.389     -645161.36    
    989000   989000         0.18854784     0.15260638     310.16507      290.58857      19.576495      15.844774      301.30464      65.132954     -570871.83     -571607.07      73663.881     -645270.95    
    990000   990000         0.18852511     0.20934031     307.44552      293.17451      14.271011      15.846685      301.2445       284.16623     -568395.09     -571602.84      73649.178     -645252.02    
    991000   991000         0.18855462     0.19914796     303.83714      288.83574      15.001399      15.844204      300.63061     -502.10349     -577272.64     -571604.73      73499.091     -645103.82    
    992000   992000         0.18854959     0.17071129     308.54623      291.04593      17.500295      15.844627      300.58417     -217.98931     -574062.66     -571601.92      73487.739     -645089.66    
    993000   993000         0.18857318     0.2059834      312.05678      297.5532       14.503586      15.842646      301.2786      -435.73397     -576526.41     -571607.71      73657.513     -645265.22    
    994000   994000         0.18858494     0.20820751     313.25133      298.90267      14.348657      15.841658      300.76925     -178.61005     -573614.78     -571598.58      73532.985     -645131.56    
    995000   995000         0.18860422     0.38726402     308.44665      300.73228      7.7143701      15.840038      301.65975      117.2427      -570284.36     -571607.83      73750.699     -645358.53    
    996000   996000         0.18858951     0.1181105      313.35285      288.05875      25.294093      15.841273      300.94932     -172.32889     -573543.51     -571598.21      73577.011     -645175.22    
    997000   997000         0.18858083     0.18719775     313.34228      297.38323      15.959049      15.842003      300.57271     -357.2188      -575622.5      -571590.1       73484.936     -645075.04    
    998000   998000         0.18857143     0.1635881      314.31705      296.05474      18.262319      15.842792      301.07766      159.09839     -569806.55     -571602.5       73608.388     -645210.89    
    999000   999000         0.18856382     0.11641788     314.74592      289.08407      25.661848      15.843431      302.04842     -24.321862     -571884.6      -571610.05      73845.723     -645455.77    
   1000000   1000000        0.18852951     0.15309047     308.9136       289.399        19.514591      15.846315      300.19741      66.140636     -570848.5      -571595.11      73393.181     -644988.29    
   1001000   1001000        0.1885255      0.22406458     311.419        298.0858       13.3332        15.846652      301.3151      -224.21188     -574137.49     -571606.52      73666.438     -645272.96    
   1002000   1002000        0.1885509      0.17192741     311.89112      294.51461      17.376508      15.844517      299.82536      182.62675     -569529.18     -571590.73      73302.221     -644892.95    
   1003000   1003000        0.18855167     0.48397009     301.63251      295.45962      6.172898       15.844452      300.88825     -85.60966      -572568.4      -571602.01      73562.079     -645164.09    
   1004000   1004000        0.18857381     0.15638081     309.44226      290.33826      19.103994      15.842592      301.07697      180.91736     -569567.32     -571609.58      73608.219     -645217.79    
   1005000   1005000        0.18857873     0.15893433     310.16308      291.36602      18.79706       15.842179      300.83844      140.31857     -570020.62     -571604.58      73549.903     -645154.48    
   1006000   1006000        0.18854162     0.10884936     315.28231      287.83615      27.44617       15.845297      300.68194     -310.49944     -575109.34     -571604.33      73511.641     -645115.97    
   1007000   1007000        0.18849808     0.17880122     310.39557      293.68708      16.708488      15.848957      300.56785     -161.45951     -573426.29     -571603.68      73483.746     -645087.43    
   1008000   1008000        0.18847761     0.14034082     313.05388      291.76643      21.287449      15.850678      301.46099      28.112783     -571288.15     -571605.49      73702.104     -645307.6     
   1009000   1009000        0.18849319     8.7286948      299.13901      298.79675      0.34226171     15.849369      299.66147     -62.025863     -572290.31     -571590.14      73262.152     -644852.29    
   1010000   1010000        0.18849883     0.19243794     299.43499      283.91051      15.524475      15.848894      300.42292     -127.06063     -573028.86     -571594.56      73448.316     -645042.87    
   1011000   1011000        0.18850977     0.32406045     299.10476      289.88581      9.2189529      15.847974      301.30483     -77.119776     -572472.33     -571601.78      73663.927     -645265.71    
   1012000   1012000        0.1885252      0.33819941     303.66211      294.82857      8.83354        15.846677      300.21299     -611.38686     -578490.42     -571588.89      73396.99      -644985.88    
   1013000   1013000        0.18850277     0.14061551     312.79151      291.54564      21.245863      15.848563      300.36808     -154.51173     -573350.38     -571606.21      73434.906     -645041.11    
   1014000   1014000        0.18844525     0.12910867     312.98606      289.84665      23.139407      15.8534        301.94037      214.22162     -569181.73     -571599.93      73819.306     -645419.23    
   1015000   1015000        0.18837172     0.17084087     306.51062      289.0236       17.487022      15.859589      299.55879      518.58007     -565740.88     -571594.77      73237.05      -644831.82    
   1016000   1016000        0.18832016     0.26839181     301.53934      290.40823      11.131107      15.863931      300.55684     -556.24402     -577884.12     -571605.06      73481.056     -645086.12    
   1017000   1017000        0.18827917     0.21252222     307.17541      293.11807      14.057344      15.867384      300.92728      320.27785     -567996.71     -571612.11      73571.622     -645183.73    
   1018000   1018000        0.18829622     0.27524793     309.38304      298.5292       10.853844      15.865948      301.26783     -103.38241     -572778.3      -571611.28      73654.882     -645266.16    
   1019000   1019000        0.18831979     0.26973994     302.80747      291.73199      11.075475      15.863962      299.76655     -579.14931     -578137.4      -571599.78      73287.843     -644887.62    
   1020000   1020000        0.18833824     0.19227799     306.30274      290.76535      15.537389      15.862408      300.52916     -311.36647     -575108.15     -571593.35      73474.289     -645067.64    
Loop time of 44267.7 on 32 procs for 1000000 steps with 82020 atoms

Performance: 1.952 ns/day, 12.297 hours/ns, 22.590 timesteps/s, 1.853 Matom-step/s
99.4% CPU use with 32 MPI tasks x 1 OpenMP threads

MPI task timing breakdown:
Section |  min time  |  avg time  |  max time  |%varavg| %total
---------------------------------------------------------------
Pair    | 19894      | 22015      | 26183      |1076.6 | 49.73
Bond    | 445.77     | 490.65     | 650.92     | 160.6 |  1.11
Kspace  | 13598      | 17461      | 19500      |1219.0 | 39.44
Neigh   | 2033.8     | 2078.4     | 2096.7     |  37.8 |  4.70
Comm    | 979.96     | 1384.6     | 1807.1     | 702.6 |  3.13
Output  | 0.1271     | 0.15494    | 0.3109     |   8.3 |  0.00
Modify  | 212.21     | 758.47     | 1288.1     |1325.4 |  1.71
Other   |            | 80.01      |            |       |  0.18

Nlocal:        2563.12 ave        2714 max        2444 min
Histogram: 4 4 3 4 6 2 1 4 1 3
Nghost:        17296.3 ave       18131 max       16721 min
Histogram: 3 7 9 1 2 2 0 0 4 4
Neighs:     1.5616e+06 ave 1.78331e+06 max 1.40635e+06 min
Histogram: 1 5 8 5 4 2 3 0 0 4

Total # of neighbors = 49971225
Ave neighs/atom = 609.25658
Ave special neighs/atom = 10.922214
Neighbor list builds = 51858
Dangerous builds = 0
Total wall time: 12:32:14
