units real
atom_style full
boundary p p p

# styles
pair_style lj/charmm/coul/long 8.0 12.0
kspace_style pppm 1e-6
dielectric 1.000000
bond_style harmonic
angle_style harmonic
dihedral_style fourier
improper_style cvff
special_bonds amber
pair_modify mix arithmetic
neighbor 2.0 bin
neigh_modify delay 0 every 1 check yes

# system definition
read_data ../final.data
Reading data file ...
  orthogonal box = (-25.800016 -24.079824 -155.73635) to (25.800016 24.079824 155.73635)
  2 by 2 by 8 MPI processor grid
  reading atoms ...
  82020 atoms
  reading velocities ...
  82020 velocities
  scanning bonds ...
  4 = max bonds/atom
  scanning angles ...
  6 = max angles/atom
  scanning dihedrals ...
  15 = max dihedrals/atom
  scanning impropers ...
  1 = max impropers/atom
  reading bonds ...
  84010 bonds
  reading angles ...
  150000 angles
  reading dihedrals ...
  219910 dihedrals
  reading impropers ...
  6000 impropers
Finding 1-2 1-3 1-4 neighbors ...
  special bond factors lj:    0        0        0.5     
  special bond factors coul:  0        0        0.8333333333333334
     4 = max # of 1-2 neighbors
    11 = max # of 1-3 neighbors
    22 = max # of 1-4 neighbors
    26 = max # of special neighbors
  special bonds CPU = 0.089 seconds
  read_data CPU = 1.260 seconds
# do not reset velocities

# vars
variable tLog equal 1000
variable nEvery equal 10
variable nRepeat equal 100
variable boolDump equal 0
variable tDump equal 1000

variable tPreeq equal 10000
variable tPrerun equal 10000
variable tTCrun equal 1000000

variable diffT_delay equal ${tPreeq}+${tPreeq}
variable diffT_delay equal 10000+${tPreeq}
variable diffT_delay equal 10000+10000
# heatflux of 0.05 give good results over 1 ns
variable heat_flux equal 0.05
variable heat_flux_neg equal -1*v_heat_flux

# defining region
variable hot_lo equal (ly*0)+ylo
variable hot_hi equal (ly*0.05)+ylo
variable cold_lo equal (ly*0.50)+ylo
variable cold_hi equal (ly*0.55)+ylo

print "DEBUG: ${hot_lo} ${hot_hi} ${cold_lo} ${cold_hi}"
DEBUG: -24.0798239715051 -21.6718415743546 0 2.40798239715051

# define heating and cooling block regions
region hot block INF INF ${hot_lo} ${hot_hi} INF INF units box
region hot block INF INF -24.0798239715051 ${hot_hi} INF INF units box
region hot block INF INF -24.0798239715051 -21.6718415743546 INF INF units box
region cold block INF INF ${cold_lo} ${cold_hi} INF INF units box
region cold block INF INF 0 ${cold_hi} INF INF units box
region cold block INF INF 0 2.40798239715051 INF INF units box
compute Thot all temp/region hot
compute Tcold all temp/region cold

# STEP 1 - 1st equilibration (nve)
# 1a - thermo output for md2
thermo_style custom step time temp c_Thot c_Tcold press enthalpy etotal ke pe
thermo_modify colname c_Thot Temp_hot colname c_Tcold Temp_cold
thermo_modify flush yes
thermo ${tLog}
thermo 1000

# 1b - nve equilibration
timestep 1.0
fix md2 all nve
run ${tPreeq}
run 10000
PPPM initialization ...
  using 12-bit tables for long-range coulomb (src/kspace.cpp:342)
  G vector (1/distance) = 0.27316341
  grid = 60 60 225
  stencil order = 5
  estimated absolute RMS force accuracy = 0.00037618852
  estimated relative force accuracy = 1.1328806e-06
  using double precision FFTW3
  3d grid and FFT values/proc = 47915 28800
Generated 120 of 120 mixed pair_coeff terms from arithmetic mixing rule
Neighbor list info ...
  update: every = 1 steps, delay = 0 steps, check = yes
  max neighbors/atom: 2000, page size: 100000
  master list distance cutoff = 14
  ghost atom cutoff = 14
  binsize = 7, bins = 8 7 45
  1 neighbor lists, perpetual/occasional/extra = 1 0 0
  (1) pair lj/charmm/coul/long, perpetual
      attributes: half, newton on
      pair build: half/bin/newton
      stencil: half/bin/3d
      bin: standard
Per MPI rank memory allocation (min/avg/max) = 39.81 | 40.44 | 41.45 Mbytes
   Step          Time           Temp         Temp_hot      Temp_cold        Press         Enthalpy        TotEng         KinEng         PotEng    
         0   0              300.41615      300.55937      299.18298      42.831017     -571123.67     -571607.16      73446.659     -645053.82    
      1000   1000           299.49981      301.00397      296.60603      1.2905042     -571587.4      -571601.97      73222.629     -644824.6     
      2000   2000           300.56516      306.65514      307.28696     -464.25997     -576854.99     -571614.28      73483.09      -645097.37    
      3000   3000           300.4289       302.01375      296.8815      -11.421934     -571729.31     -571600.38      73449.777     -645050.15    
      4000   4000           300.33842      301.3869       302.15805     -42.000571     -572077.46     -571603.35      73427.657     -645031.01    
      5000   5000           300.34401      299.82812      302.53118      15.245438     -571436.74     -571608.83      73429.022     -645037.85    
      6000   6000           299.37306      298.84875      300.23774     -285.02193     -574806.31     -571588.89      73191.642     -644780.54    
      7000   7000           300.51432      298.75844      307.83012      181.1694      -569556.51     -571601.61      73470.661     -645072.27    
      8000   8000           299.59566      297.74865      302.07338      97.488514     -570490.78     -571591.26      73246.063     -644837.32    
      9000   9000           299.65547      299.77204      295.15935      183.10649     -569527.58     -571594.54      73260.686     -644855.23    
     10000   10000          300.62632      299.76992      305.38273     -125.15272     -573017.01     -571604.25      73498.043     -645102.29    
Loop time of 431.064 on 32 procs for 10000 steps with 82020 atoms

Performance: 2.004 ns/day, 11.974 hours/ns, 23.198 timesteps/s, 1.903 Matom-step/s
99.5% CPU use with 32 MPI tasks x 1 OpenMP threads

MPI task timing breakdown:
Section |  min time  |  avg time  |  max time  |%varavg| %total
---------------------------------------------------------------
Pair    | 198.02     | 219.11     | 256.33     | 106.2 | 50.83
Bond    | 4.3838     | 4.836      | 6.2447     |  15.4 |  1.12
Kspace  | 128.85     | 166.26     | 188.29     | 122.8 | 38.57
Neigh   | 19.968     | 20.39      | 20.6       |   4.2 |  4.73
Comm    | 10.373     | 14.188     | 17.828     |  57.9 |  3.29
Output  | 0.0018993  | 0.0038835  | 0.0050055  |   1.6 |  0.00
Modify  | 0.13036    | 0.18838    | 0.35034    |  16.6 |  0.04
Other   |            | 6.082      |            |       |  1.41

Nlocal:        2563.12 ave        2718 max        2410 min
Histogram: 1 4 4 3 6 4 1 3 4 2
Nghost:        17320.7 ave       18197 max       16810 min
Histogram: 8 6 5 1 2 2 0 0 4 4
Neighs:    1.56168e+06 ave 1.78154e+06 max 1.41866e+06 min
Histogram: 3 3 9 3 5 2 3 0 2 2

Total # of neighbors = 49973640
Ave neighs/atom = 609.28603
Ave special neighs/atom = 10.922214
Neighbor list builds = 518
Dangerous builds = 0
unfix md2

# STEP 2 - MD for thermal conductivity
# 2a - impose nve
fix md3 all nve

# 2b - impose heat flux
fix hot all ehex 1 ${heat_flux} region hot
fix hot all ehex 1 0.05 region hot
fix cold all ehex 1 ${heat_flux_neg} region cold
fix cold all ehex 1 -0.05 region cold

# 2c - calculate thermal profile
compute ke all ke/atom
variable temp atom c_ke/(1.5*0.001987204)

compute layers all chunk/atom bin/1d y lower 0.05 units reduced
fix bins all ave/chunk ${nEvery} ${nRepeat} ${tLog} layers v_temp file Tprofile_y_ehex.dat
fix bins all ave/chunk 10 ${nRepeat} ${tLog} layers v_temp file Tprofile_y_ehex.dat
fix bins all ave/chunk 10 100 ${tLog} layers v_temp file Tprofile_y_ehex.dat
fix bins all ave/chunk 10 100 1000 layers v_temp file Tprofile_y_ehex.dat

variable tdiff equal c_Thot-c_Tcold
fix ave all ave/time ${nEvery} ${nRepeat} ${tLog} v_tdiff ave running start ${diffT_delay}
fix ave all ave/time 10 ${nRepeat} ${tLog} v_tdiff ave running start ${diffT_delay}
fix ave all ave/time 10 100 ${tLog} v_tdiff ave running start ${diffT_delay}
fix ave all ave/time 10 100 1000 v_tdiff ave running start ${diffT_delay}
fix ave all ave/time 10 100 1000 v_tdiff ave running start 20000

# pre define kappa
variable kappa_inst equal 0
variable kappa equal 0

# 2d - thermo out
# dump dump_tc all custom 1000 dump.tc_x_ehex.lammpstrj id type mol x y z ix iy iz vx vy vz
thermo_style custom step time v_kappa v_kappa_inst c_Thot c_Tcold v_tdiff f_ave temp press enthalpy etotal ke pe
WARNING: New thermo_style command, previous thermo_modify settings will be lost (src/output.cpp:904)
thermo_modify colname v_kappa kappa colname v_kappa_inst kappa_inst colname c_Thot Temp_hot colname c_Tcold Temp_cold colname v_tdiff dTemp_step colname f_ave dTemp
thermo_modify flush yes
thermo ${tLog}
thermo 1000

# 2e - prerun
run ${tPrerun}
run 10000
PPPM initialization ...
  using 12-bit tables for long-range coulomb (src/kspace.cpp:342)
  G vector (1/distance) = 0.27316341
  grid = 60 60 225
  stencil order = 5
  estimated absolute RMS force accuracy = 0.00037618852
  estimated relative force accuracy = 1.1328806e-06
  using double precision FFTW3
  3d grid and FFT values/proc = 47915 28800
Generated 120 of 120 mixed pair_coeff terms from arithmetic mixing rule
Per MPI rank memory allocation (min/avg/max) = 40.91 | 41.57 | 42.45 Mbytes
   Step          Time          kappa        kappa_inst      Temp_hot      Temp_cold      dTemp_step       dTemp           Temp          Press         Enthalpy        TotEng         KinEng         PotEng    
     10000   10000          0              0              299.74888      305.38273     -5.6338514      0              300.62632     -125.15272     -573017.01     -571604.25      73498.043     -645102.29    
     11000   11000          0              0              301.73715      304.90448     -3.1673266      0              300.81734     -67.947437     -572369.37     -571602.36      73544.744     -645147.1     
     12000   12000          0              0              312.77719      306.22887      6.5483144      0              299.98641     -205.73117     -573938.99     -571616.63      73341.596     -644958.22    
     13000   13000          0              0              298.99948      299.47812     -0.47864431     0              299.9065       16.491475     -571430.75     -571616.91      73322.057     -644938.96    
     14000   14000          0              0              296.06851      295.16489      0.90361772     0              300.05647     -217.68851     -574054.05     -571596.71      73358.725     -644955.44    
     15000   15000          0              0              298.80919      294.23279      4.5764032      0              300.39716      43.618461     -571114.44     -571606.82      73442.016     -645048.83    
     16000   16000          0              0              302.89931      300.47562      2.4236924      0              298.88476     -113.61661     -572886.42     -571603.88      73072.261     -644676.14    
     17000   17000          0              0              307.3096       292.12095      15.188649      0              300.05822      26.87612      -571302.08     -571605.47      73359.151     -644964.62    
     18000   18000          0              0              297.73629      297.90472     -0.16843424     0              300.13938      115.0053      -570307.57     -571605.79      73378.995     -644984.79    
     19000   19000          0              0              298.68742      288.87176      9.8156605      0              299.32791     -20.750774     -571828.69     -571594.44      73180.604     -644775.05    
     20000   20000          0              0              298.03568      296.05904      1.9766353      5.8826338      300.02214     -343.03639     -575479.75     -571607.45      73350.331     -644957.78    
Loop time of 440.218 on 32 procs for 10000 steps with 82020 atoms

Performance: 1.963 ns/day, 12.228 hours/ns, 22.716 timesteps/s, 1.863 Matom-step/s
99.5% CPU use with 32 MPI tasks x 1 OpenMP threads

MPI task timing breakdown:
Section |  min time  |  avg time  |  max time  |%varavg| %total
---------------------------------------------------------------
Pair    | 195.28     | 218.35     | 259.41     | 112.5 | 49.60
Bond    | 4.3965     | 4.8505     | 6.3255     |  16.1 |  1.10
Kspace  | 132.65     | 173.87     | 195.89     | 127.1 | 39.50
Neigh   | 20.04      | 20.505     | 20.701     |   4.3 |  4.66
Comm    | 11.377     | 15.004     | 18.709     |  56.4 |  3.41
Output  | 0.0022562  | 0.0023711  | 0.0028917  |   0.2 |  0.00
Modify  | 2.312      | 6.8137     | 10.696     | 112.5 |  1.55
Other   |            | 0.8246     |            |       |  0.19

Nlocal:        2563.12 ave        2711 max        2440 min
Histogram: 3 3 8 1 3 4 2 4 0 4
Nghost:        17331.4 ave       18225 max       16820 min
Histogram: 7 6 6 1 4 0 0 4 0 4
Neighs:    1.56144e+06 ave 1.77629e+06 max 1.42739e+06 min
Histogram: 2 7 7 3 5 3 1 0 0 4

Total # of neighbors = 49965949
Ave neighs/atom = 609.19226
Ave special neighs/atom = 10.922214
Neighbor list builds = 518
Dangerous builds = 0

# 2f - calc kappa
variable kappa_inst equal (${heat_flux}/(lx*lz)/2.0)*(ly/2.0)/v_tdiff*69478.5785
variable kappa_inst equal (0.05/(lx*lz)/2.0)*(ly/2.0)/v_tdiff*69478.5785
variable kappa equal (${heat_flux}/(lx*lz)/2.0)*(ly/2.0)/f_ave*69478.5785
variable kappa equal (0.05/(lx*lz)/2.0)*(ly/2.0)/f_ave*69478.5785

# 2g - md run for kappa calculation
# optional traj dump
if "${boolDump} == 1" then     "dump tc_dump all atom ${tDump} dump.tc_y.lammpstrj"
run ${tTCrun}
run 1000000
PPPM initialization ...
  using 12-bit tables for long-range coulomb (src/kspace.cpp:342)
  G vector (1/distance) = 0.27316341
  grid = 60 60 225
  stencil order = 5
  estimated absolute RMS force accuracy = 0.00037618852
  estimated relative force accuracy = 1.1328806e-06
  using double precision FFTW3
  3d grid and FFT values/proc = 47915 28800
Generated 120 of 120 mixed pair_coeff terms from arithmetic mixing rule
Per MPI rank memory allocation (min/avg/max) = 41.41 | 42.07 | 42.95 Mbytes
   Step          Time          kappa        kappa_inst      Temp_hot      Temp_cold      dTemp_step       dTemp           Temp          Press         Enthalpy        TotEng         KinEng         PotEng    
     20000   20000          0.44238713     0.76457647     299.46276      296.05904      3.4037164      5.8826338      300.02214     -343.03635     -575479.75     -571607.45      73350.331     -644957.78    
     21000   21000          0.45078724     2.5082094      296.31262      295.27507      1.0375535      5.7730149      299.42549     -119.01285     -572939.54     -571596.09      73204.461     -644800.55    
     22000   22000          0.44259534     0.36597667     306.38449      299.27365      7.1108398      5.8798663      300.27388     -118.63238     -572946.54     -571607.38      73411.876     -645019.26    
     23000   23000          0.42019172     0.68957879     302.97434      299.20044      3.7739001      6.1933669      300.47048      317.114       -568024.73     -571604.41      73459.942     -645064.35    
     24000   24000          0.44229939    -1.0327315      304.48821      307.00813     -2.5199207      5.8838007      301.55203      162.79449     -569777.81     -571615.49      73724.363     -645339.85    
     25000   25000          0.46448356     0.52977541     301.93743      297.02515      4.912273       5.6027848      299.37816     -212.81677     -574002.1      -571599.76      73192.889     -644792.65    
     26000   26000          0.45815682     0.28949677     307.51176      298.52236      8.9893973      5.6801543      301.25454      155.48984     -569863.61     -571618.82      73651.631     -645270.46    
     27000   27000          0.44670455     0.32631892     303.99631      296.02129      7.9750247      5.8257778      299.65253      174.11791     -569633.82     -571599.32      73259.968     -644859.29    
     28000   28000          0.42061515     0.40928803     303.98198      297.62362      6.358362       6.187132       300.08275      222.9934      -569095.4      -571612.62      73365.15      -644977.77    
     29000   29000          0.42952555    -49.706032      301.67561      301.72796     -0.052355848    6.0587814      300.15203     -35.118003     -571992.81     -571596.39      73382.087     -644978.47    
     30000   30000          0.41219391     0.16450873     308.1238       292.30457      15.81923       6.3135368      300.19054      2.4522979     -571577.88     -571605.56      73391.502     -644997.06    
     31000   31000          0.385124       0.13930691     313.08769      294.40663      18.681065      6.7573078      301.07412      37.075623     -571194.2      -571612.72      73607.522     -645220.25    
     32000   32000          0.36694929     0.16668786     305.24354      289.63112      15.612423      7.091992       301.2829      -828.52515     -580965.89     -571613.24      73658.564     -645271.8     
     33000   33000          0.34814113     0.4129351      304.7125       298.4103       6.3022045      7.4751335      299.6308      -389.29528     -575996.53     -571602.04      73254.655     -644856.7     
     34000   34000          0.32977534     0.162092       313.30147      297.24638      16.055089      7.8914374      300.5804       354.73655     -567603.08     -571607.46      73486.816     -645094.27    
     35000   35000          0.31813421     0.19349226     309.8595       296.40986      13.449641      8.1801999      299.59398      194.20453     -569414.32     -571606.56      73245.654     -644852.21    
     36000   36000          0.30571377     0.22043186     303.18013      291.37421      11.805922      8.5125425      299.68964      49.888474     -571040.84     -571604         73269.04      -644873.04    
     37000   37000          0.29280981     0.20275414     302.06962      289.23436      12.835257      8.8876852      300.58606      347.846       -567686.28     -571612.88      73488.201     -645101.08    
     38000   38000          0.28589353     0.17372701     304.44145      289.46162      14.979832      9.1026945      301.42579     -236.70471     -574288.81     -571616.81      73693.499     -645310.31    
     39000   39000          0.27561827     0.21400942     303.05936      290.89914      12.160219      9.4420499      299.96622     -185.00057     -573692.24     -571603.9       73336.66      -644940.56    
     40000   40000          0.26885822     0.31104001     305.90965      297.54288      8.366774       9.6794564      300.2513      -75.179519     -572459.45     -571610.8       73406.358     -645017.16    
     41000   41000          0.26268557     0.14713107     306.97707      289.28943      17.687641      9.9069069      299.30507     -93.181985     -572649.51     -571597.65      73175.02      -644772.67    
     42000   42000          0.25766292     0.13355767     304.92693      285.4417       19.485226      10.100023      300.15975      266.13687     -568603.16     -571607.39      73383.974     -644991.37    
     43000   43000          0.25598149     0.18431319     309.14785      295.0284       14.119453      10.166366      299.72277     -138.10196     -573153.5      -571594.56      73277.141     -644871.7     
     44000   44000          0.25344064     0.21503111     305.11452      293.01208      12.102442      10.268288      299.58395      4.9594658     -571555.09     -571611.07      73243.201     -644854.27    
     45000   45000          0.24884216     0.18661479     305.9013       291.95599      13.945312      10.458041      300.26415      193.00315     -569428.65     -571607.33      73409.497     -645016.83    
     46000   46000          0.24359435     0.11353943     307.83226      284.91157      22.920685      10.683341      299.47401      180.20161     -569560.9      -571595.08      73216.322     -644811.4     
     47000   47000          0.23971368     0.16611294     304.54525      288.87879      15.666458      10.856291      299.93628     -199.91664     -573849.25     -571592.53      73329.34      -644921.87    
     48000   48000          0.23612927     0.37224428     303.42017      296.42906      6.991112       11.021088      300.35796      59.970432     -570932.58     -571609.54      73432.433     -645041.97    
     49000   49000          0.23479614     0.25957719     300.77708      290.75154      10.02554       11.083664      300.73447     -111.51355     -572860.31     -571601.51      73524.484     -645125.99    
     50000   50000          0.23272592     0.20237374     305.28535      292.42597      12.859383      11.182259      299.72554     -337.57132     -575420.41     -571609.79      73277.817     -644887.61    
     51000   51000          0.23121952     0.24859545     306.13152      295.6631       10.468419      11.255111      299.69524     -268.51302     -574632.21     -571601.15      73270.409     -644871.56    
     52000   52000          0.23075129     0.15387769     308.09886      291.18672      16.912142      11.27795       300.66408     -3.6779416     -571645.18     -571603.67      73507.274     -645110.94    
     53000   53000          0.231099       0.31886754     306.55892      298.39753      8.1613871      11.260981      300.13824      56.736318     -570951.72     -571592.18      73378.716     -644970.9     
     54000   54000          0.23115483     0.26645625     306.40358      296.63686      9.7667119      11.258261      301.03987      13.348149     -571449.84     -571600.52      73599.148     -645199.67    
     55000   55000          0.23181054    -0.46697588     299.20204      304.77493     -5.5728819      11.226416      298.99143      204.31054     -569291.18     -571597.5       73098.339     -644695.84    
     56000   56000          0.23235067     0.24100062     307.61049      296.81217      10.798319      11.200319      300.22643      358.35201     -567562.07     -571607.26      73400.276     -645007.53    
     57000   57000          0.23175048     0.11757476     312.998        290.86399      22.134014      11.229325      300.01142      75.793286     -570749.26     -571604.84      73347.709     -644952.55    
     58000   58000          0.23248344     0.95737519     298.94474      296.22647      2.7182671      11.193922      300.2853       19.639583     -571387.57     -571609.27      73414.67      -645023.94    
     59000   59000          0.23199455    -0.94717502     302.69442      305.44196     -2.7475402      11.217511      300.96103      144.50584     -569978.45     -571609.68      73579.873     -645189.55    
     60000   60000          0.23285562     0.83289377     299.85827      296.73374      3.1245299      11.17603       299.514       -105.21879     -572787.87     -571600.12      73226.099     -644826.22    
     61000   61000          0.23417652     0.53705044     301.36187      296.51614      4.84573        11.11299       300.60144      281.49154     -568430.87     -571608.43      73491.96      -645100.39    
     62000   62000          0.23642816     0.30100016     302.11835      293.4725       8.6458475      11.007155      300.65024      100.22247     -570481.9      -571613.24      73503.89      -645117.13    
     63000   63000          0.2380485      0.27941386     305.59156      296.27777      9.3137879      10.932232      300.65859      274.97945     -568512.49     -571616.54      73505.931     -645122.47    
     64000   64000          0.24007193     0.50732241     304.95241      299.82273      5.1296796      10.840091      300.70186     -81.755859     -572526.99     -571604.1       73516.51      -645120.61    
     65000   65000          0.23987772     0.16822662     304.74278      289.27316      15.469617      10.848867      299.42416      252.30469     -568749.25     -571597.34      73204.135     -644801.48    
     66000   66000          0.23906174     0.3433121      304.56668      296.9864       7.5802788      10.885897      300.09966     -309.34198     -575101.99     -571610.04      73369.282     -644979.33    
     67000   67000          0.23957057     0.38651417     297.78546      291.05246      6.7330041      10.862776      301.17555     -28.340388     -571928.57     -571608.65      73632.32      -645240.98    
     68000   68000          0.23895715     0.3436252      304.33971      296.76633      7.5733719      10.890661      299.07286      217.75208     -569135.8      -571593.85      73118.247     -644712.1     
     69000   69000          0.23779953     0.39646178     302.1918       295.62773      6.5640664      10.943678      298.80608     -382.11095     -575908.13     -571594.74      73053.026     -644647.76    
     70000   70000          0.23798531     0.82379051     303.3627       300.20364      3.1590573      10.935135      299.61148      95.280553     -570542.98     -571618.53      73249.931     -644868.46    
     71000   71000          0.23861042     0.20212799     307.2214       294.34638      12.875018      10.906487      299.8821      -56.563696     -572243.13     -571604.62      73316.093     -644920.72    
     72000   72000          0.23688937     0.12948011     308.18325      288.0844       20.098851      10.985725      299.40593     -30.351024     -571939.2      -571596.59      73199.678     -644796.27    
     73000   73000          0.23564402     0.16128707     308.0273       291.89209      16.135215      11.043783      299.4684       20.56944      -571363.7      -571595.89      73214.95      -644810.84    
     74000   74000          0.23584358     0.45029497     302.89462      297.11529      5.779326       11.034438      300.66582      92.15806      -570567.62     -571607.93      73507.7       -645115.63    
     75000   75000          0.23532434     0.17760542     307.27794      292.62523      14.652714      11.058786      299.40711     -83.895706     -572545.95     -571598.91      73199.966     -644798.87    
     76000   76000          0.23552218     0.20025015     307.21149      294.21573      12.995753      11.049496      299.42755     -56.210305     -572234.62     -571600.1       73204.964     -644805.07    
     77000   77000          0.23585622     0.19365421     310.1347       296.6963       13.438393      11.033847      299.40575     -208.2515      -573954.96     -571604.15      73199.633     -644803.79    
     78000   78000          0.23568398     0.2323965      305.71398      294.51587      11.198109      11.04191       299.91221      36.888237     -571193.05     -571609.46      73323.456     -644932.92    
     79000   79000          0.23638777     0.23427225     306.39324      295.28479      11.10845       11.009036      300.26646      108.10187     -570383.62     -571603.91      73410.064     -645013.98    
     80000   80000          0.23698762     0.84739438     301.78309      298.71203      3.0710629      10.981171      300.30835      285.51057     -568374.62     -571597.55      73420.305     -645017.86    
     81000   81000          0.23719666     0.13144456     305.46541      285.66693      19.798473      10.971493      300.05318      408.58391     -567001.15     -571613.37      73357.919     -644971.29    
     82000   82000          0.23654981     0.20589476     306.66826      294.02879      12.639474      11.001495      299.39519     -456.03528     -576740.86     -571592.99      73197.051     -644790.04    
     83000   83000          0.23577707     0.31987102     305.29037      297.15458      8.1357837      11.037551      298.81         95.827803     -570519.68     -571601.42      73053.984     -644655.4     
     84000   84000          0.23507998     0.15757549     306.02763      289.51236      16.515268      11.070281      300.09948      110.7924      -570356.51     -571607.17      73369.239     -644976.41    
     85000   85000          0.233949       0.16031241     311.23689      295.00358      16.233313      11.123798      298.96635      199.30912     -569347.29     -571597.15      73092.209     -644689.36    
     86000   86000          0.23343215     0.13737752     312.1909       293.24747      18.94343       11.148428      299.86425      384.21139     -567268.24     -571605.34      73311.729     -644917.07    
     87000   87000          0.23291688     0.13359351     308.06063      288.58063      19.479999      11.173091      300.36971     -8.1911964     -571692.17     -571599.71      73435.307     -645035.01    
     88000   88000          0.23182173     0.24875162     305.756        295.29416      10.461847      11.225874      300.06425     -10.753772     -571719.06     -571597.67      73360.627     -644958.29    
     89000   89000          0.23096803     0.35216757     306.39423      299.00456      7.389668       11.267367      299.69639     -169.70145     -573509.86     -571594.22      73270.69      -644864.91    
     90000   90000          0.2306687      0.18858149     306.96442      293.16454      13.799877      11.281988      298.7769       159.2654      -569799.11     -571596.95      73045.89      -644642.84    
     91000   91000          0.23000893     0.14387661     308.24482      290.15709      18.087731      11.31435       300.16638      302.78743     -568184.99     -571602.95      73385.594     -644988.54    
     92000   92000          0.22854878     0.12284221     311.51818      290.33326      21.184913      11.386635      301.04265      412.52076     -566951.48     -571608.15      73599.827     -645207.97    
     93000   93000          0.22664436     0.1193943      309.96446      288.16776      21.796698      11.482313      299.3059       74.100625     -570754.06     -571590.53      73175.222     -644765.76    
     94000   94000          0.22499936     0.22752973     306.72138      295.28375      11.437633      11.566261      300.38141      236.38327     -568939.66     -571608.03      73438.166     -645046.19    
     95000   95000          0.22401188     0.11092689     310.5357       287.0752       23.460509      11.617247      299.77229     -143.67801     -573230.55     -571608.67      73289.246     -644897.92    
     96000   96000          0.22296444     0.10247262     319.96766      294.57159      25.396067      11.671823      300.3517       67.528041     -570836.85     -571599.12      73430.901     -645030.02    
     97000   97000          0.22141522     0.34353886     304.92803      297.35276      7.5752754      11.75349       299.57861      229.32056     -569021.83     -571610.47      73241.894     -644852.37    
     98000   98000          0.22024604     0.19211406     308.68325      295.13712      13.546127      11.815883      299.54965      167.46143     -569709.17     -571599.53      73234.815     -644834.35    
     99000   99000          0.22115508     0.19993319     306.92809      293.91174      13.016355      11.767315      300.01398      115.51948     -570301.43     -571605.45      73348.335     -644953.78    
    100000   100000         0.22141608     0.24904118     310.81669      300.36701      10.449683      11.753444      299.31679      129.20247     -570142.89     -571601.37      73177.886     -644779.25    
    101000   101000         0.22166506     0.2040642      307.16919      294.41634      12.752857      11.740242      299.17593     -193.31724     -573776.57     -571594.34      73143.447     -644737.79    
    102000   102000         0.22190512     0.18457658     310.1751       296.07579      14.099305      11.727541      299.78761     -512.43365     -577378.29     -571593.77      73292.991     -644886.77    
    103000   103000         0.22153214     0.19260427     312.56914      299.05749      13.51165       11.747286      300.07414     -422.93624     -576372.92     -571598.68      73363.044     -644961.73    
    104000   104000         0.22153126     0.21578931     309.66704      297.60712      12.059919      11.747333      299.96825      129.37045     -570149.63     -571610.01      73337.157     -644947.16    
    105000   105000         0.22073694     0.099195391    319.67735      293.44225      26.235104      11.789606      299.92884      111.99858     -570338.54     -571602.81      73327.521     -644930.34    
    106000   106000         0.21950249     0.29596433     306.92138      298.12842      8.7929565      11.855909      300.49418      204.45182     -569286.46     -571594.38      73465.737     -645060.12    
    107000   107000         0.21910916     0.14767935     309.02733      291.40536      17.621972      11.877192      300.17832      339.45422     -567770.39     -571602.26      73388.513     -644990.77    
    108000   108000         0.21859104     0.15192814     309.91818      292.78902      17.129161      11.905344      299.20206     -43.195671     -572089.52     -571601.91      73149.836     -644751.75    
    109000   109000         0.21716195     0.12961557     309.59601      289.51816      20.077846      11.98369       300.02118      287.0491      -568363.37     -571603.67      73350.096     -644953.77    
    110000   110000         0.21626267     0.1368502      314.02536      295.00893      19.016425      12.033522      300.4617       417.31744     -566893.84     -571604.65      73457.795     -645062.44    
    111000   111000         0.21570356     0.17371904     305.83941      290.85889      14.980519      12.064713      300.17947     -13.570948     -571753.94     -571600.75      73388.795     -644989.54    
    112000   112000         0.2146999      0.12467623     305.44072      284.56745      20.873276      12.121112      300.24031      80.059163     -570703.31     -571607.04      73403.67      -645010.71    
    113000   113000         0.21421925     0.18005614     305.47923      291.02595      14.453278      12.148308      300.04885     -138.77676     -573172.86     -571606.3       73356.861     -644963.16    
    114000   114000         0.21431705     2.0860679      300.67669      299.42918      1.2475152      12.142765      300.66391     -217.53026     -574056.04     -571600.49      73507.233     -645107.72    
    115000   115000         0.21399444     0.18451754     302.09985      287.99603      14.103816      12.16107       299.81862     -29.452296     -571935.34     -571602.87      73300.574     -644903.45    
    116000   116000         0.21356975     0.26152746     303.42599      293.47521      9.9507769      12.185253      299.6281      -33.96877      -571983.15     -571599.7       73253.996     -644853.7     
    117000   117000         0.21273142     0.25566953     302.66881      292.49004      10.17877       12.233273      300.41276      260.47305     -568671.6      -571611.9       73445.831     -645057.74    
    118000   118000         0.21195025     0.11785982     306.63151      284.55103      22.080481      12.27836       299.34835     -16.568482     -571789.55     -571602.52      73185.602     -644788.12    
    119000   119000         0.21155827     0.33623513     302.90069      295.16086      7.7398261      12.301109      299.18167     -4.6508393     -571661.15     -571608.65      73144.851     -644753.5     
    120000   120000         0.21036236     0.0959329      315.39613      288.26882      27.127309      12.371041      300.10416      40.680919     -571143.64     -571602.86      73370.383     -644973.24    
    121000   121000         0.20953115     0.26979506     308.58049      298.93464      9.6458455      12.420117      300.88829     -577.38743     -578123.85     -571606.12      73562.09      -645168.21    
    122000   122000         0.20885404     0.26363131     300.88691      291.01554      9.8713672      12.460384      299.6517      -120.33391     -572967.37     -571609.01      73259.763     -644868.77    
    123000   123000         0.20875978     0.22204987     307.62848      295.90858      11.719896      12.46601       300.18339     -234.37489     -574248.75     -571603.05      73389.754     -644992.81    
    124000   124000         0.2077979      0.21571582     304.8384       292.77437      12.064027      12.523714      299.08698      9.5756319     -571492.68     -571600.77      73121.699     -644722.47    
    125000   125000         0.20695263     0.17460664     308.14484      293.24047      14.904367      12.574865      301.30662      21.915983     -571350.76     -571598.15      73664.363     -645262.52    
    126000   126000         0.20618535     0.21068825     307.43605      295.08414      12.351906      12.62166       300.11483      98.999949     -570488.22     -571605.76      73372.991     -644978.76    
    127000   127000         0.20596442     0.20917797     310.89625      298.45516      12.441088      12.635199      300.76516     -116.06484     -572918.49     -571608.32      73531.986     -645140.3     
    128000   128000         0.20564463     0.43254014     301.70524      295.68868      6.0165548      12.654848      299.49232      131.47117     -570117.27     -571601.35      73220.798     -644822.15    
    129000   129000         0.20553023     0.23817046     304.41379      293.48716      10.926634      12.661891      300.29896     -188.63358     -573725.32     -571595.96      73418.009     -645013.97    
    130000   130000         0.20538467     0.13219124     309.66513      289.97849      19.686641      12.670865      300.89893      208.56482     -569253        -571607.35      73564.69      -645172.04    
    131000   131000         0.20521881     0.19254275     306.40384      292.88788      13.515967      12.681106      300.26154      176.17262     -569613.54     -571602.23      73408.859     -645011.09    
    132000   132000         0.20507879     0.12645865     314.34754      293.76847      20.579071      12.689764      300.68906      146.00127     -569951.61     -571599.71      73513.382     -645113.1     
    133000   133000         0.2048053      0.10020118     310.0101       284.03834      25.971763      12.706709      299.70897      408.80707     -566990.86     -571605.61      73273.766     -644879.37    
    134000   134000         0.20424516     0.11865697     310.33119      288.39905      21.932141      12.741557      300.95023     -43.106845     -572089.16     -571602.55      73577.232     -645179.78    
    135000   135000         0.20368652     0.11644121     310.61803      288.26854      22.349487      12.776503      299.20919     -215.95899     -574038.85     -571601.03      73151.579     -644752.61    
    136000   136000         0.20351289     0.36900477     303.3879       296.33542      7.0524873      12.787403      299.63649     -353.69387     -575599.44     -571606.84      73256.047     -644862.88    
    137000   137000         0.20287708     0.19876654     306.35096      293.2582       13.092754      12.827479      300.04006      264.42644     -568613.1      -571598.03      73354.712     -644952.74    
    138000   138000         0.20236353     0.21427022     310.99069      298.84527      12.145418      12.860032      300.79043     -155.63898     -573362.81     -571605.9       73538.165     -645144.07    
    139000   139000         0.20204514     0.17228621     309.50514      294.40003      15.105106      12.880297      298.09012      199.3265      -569342.48     -571592.54      72877.984     -644470.52    
    140000   140000         0.20194422     0.20676728     305.4126       292.82646      12.586138      12.886734      300.13859     -164.4554      -573462.53     -571606.11      73378.801     -644984.91    
    141000   141000         0.2019518      0.16343559     308.01067      292.08757      15.923101      12.88625       300.84172      152.32769     -569892.82     -571612.34      73550.705     -645163.05    
    142000   142000         0.20204066     0.1659912      312.66796      296.99001      15.677949      12.880583      299.97712      91.838675     -570565.99     -571602.69      73339.325     -644942.02    
    143000   143000         0.20195886     0.14252484     311.33655      293.07727      18.259284      12.8858        299.65742     -118.7472      -572945.68     -571605.23      73261.162     -644866.39    
    144000   144000         0.20216651     0.40137152     302.37736      295.89359      6.4837721      12.872565      300.21885      337.68535     -567789.14     -571601.04      73398.423     -644999.46    
    145000   145000         0.20214512     0.13616348     305.7397       286.62737      19.11233       12.873927      300.40845     -321.34104     -575239.42     -571612.02      73444.778     -645056.8     
    146000   146000         0.20233584     0.2102197      308.59427      296.21484      12.379437      12.861792      299.42951     -47.917938     -572130.43     -571589.52      73205.443     -644794.96    
    147000   147000         0.20262596     0.22716073     306.85099      295.39478      11.456212      12.843376      299.97533      52.552566     -571012.91     -571606.14      73338.886     -644945.03    
    148000   148000         0.203113       0.20000958     307.92087      294.90948      13.011384      12.81258       299.96975     -93.490183     -572666.66     -571611.32      73337.523     -644948.84    
    149000   149000         0.20348802     0.2571437      306.93248      296.81206      10.120417      12.788966      300.13995     -271.47766     -574666.15     -571601.62      73379.133     -644980.75    
    150000   150000         0.2033928      0.2067486      306.33695      293.74967      12.587275      12.794954      299.84874      256.44008     -568703.19     -571597.96      73307.938     -644905.9     
    151000   151000         0.20360319     0.27287378     304.86027      295.32325      9.5370154      12.781732      299.94917      325.56529     -567925.95     -571601.03      73332.491     -644933.52    
    152000   152000         0.20321254     0.099426054    311.66694      285.4927       26.174241      12.806303      299.5927       116.90181     -570277.39     -571597.02      73245.341     -644842.36    
    153000   153000         0.20260225     0.10929166     310.81457      287.00304      23.811528      12.844879      301.03093     -490.2591      -577137.58     -571603.39      73596.964     -645200.35    
    154000   154000         0.2019164      0.18124483     306.17689      291.8184       14.358487      12.888509      299.87132      295.4711      -568265.44     -571600.81      73313.458     -644914.27    
    155000   155000         0.20138752     0.12758734     310.05124      289.65422      20.39702       12.922357      301.04852      279.19953     -568457.89     -571609.58      73601.264     -645210.84    
    156000   156000         0.20083123     0.1801667      306.66354      292.21913      14.444409      12.958151      300.60726      357.98858     -567564.7      -571605.78      73493.383     -645099.17    
    157000   157000         0.20053909     0.28656973     304.57713      295.49591      9.0812153      12.977028      300.94646      415.01729     -566927.08     -571611.92      73576.311     -645188.23    
    158000   158000         0.20037638     0.11244195     311.57992      288.43552      23.144399      12.987566      300.04902      452.64467     -566496.95     -571606.54      73356.903     -644963.44    
    159000   159000         0.19990545     0.38184595     307.33931      300.52399      6.8153177      13.018161      300.12311     -319.49869     -575214.61     -571608         73375.016     -644983.02    
    160000   160000         0.19943411     0.14851215     310.74477      293.22161      17.523155      13.048928      300.4534      -440.53821     -576574.62     -571601.68      73455.766     -645057.45    
    161000   161000         0.19897373     0.19204464     303.61645      290.06543      13.551024      13.079121      299.88713     -98.361093     -572714.45     -571604.12      73317.324     -644921.44    
    162000   162000         0.19862549     0.14552816     307.38929      289.50683      17.882459      13.102052      301.48967      126.43007     -570184.71     -571611.9       73709.117     -645321.01    
    163000   163000         0.19847511     0.29851591     304.31453      295.59673      8.7177981      13.111979      299.7506      -240.50977     -574326.11     -571611.16      73283.943     -644895.1     
    164000   164000         0.19833983     0.15446116     309.89267      293.04441      16.848258      13.120922      299.58462      41.04469      -571124.11     -571587.44      73243.363     -644830.8     
    165000   165000         0.19812837     0.18786532     309.21688      295.36439      13.852485      13.134926      301.29133      183.76975     -569539.58     -571614.03      73660.626     -645274.66    
    166000   166000         0.19764693     0.12481747     308.61802      287.76837      20.849657      13.166921      300.04954     -24.387402     -571887.74     -571612.45      73357.029     -644969.47    
    167000   167000         0.19757433     0.18524462     309.75656      295.70811      14.048459      13.171759      299.549       -73.814537     -572447.1      -571613.85      73234.657     -644848.51    
    168000   168000         0.19750852     0.24635728     310.91404      300.35051      10.563526      13.176148      300.79465     -16.578483     -571788.77     -571601.63      73539.197     -645140.82    
    169000   169000         0.19749432     0.16787136     309.47953      293.97718      15.502355      13.177095      299.98406      182.3438      -569549.14     -571607.5       73341.022     -644948.52    
    170000   170000         0.19738541     0.50060938     302.36049      297.16202      5.1984672      13.184366      300.14375     -320.72294     -575230.65     -571610.23      73380.062     -644990.29    
    171000   171000         0.19710125     0.1988208      309.56708      296.4779       13.089181      13.203374      299.53135     -240.11279     -574310.18     -571599.71      73230.341     -644830.06    
    172000   172000         0.19709873     0.11825402     307.69121      285.68433      22.006875      13.203542      300.11104      56.491775     -570961.24     -571598.94      73372.064     -644971       
    173000   173000         0.19708528     0.16380245     305.75624      289.8688       15.887439      13.204444      300.49121      20.01033      -571383.62     -571609.5       73465.011     -645074.51    
    174000   174000         0.19691107     0.42296445     305.63236      299.4796       6.1527664      13.216126      300.10835     -55.415198     -572229.37     -571603.83      73371.407     -644975.24    
    175000   175000         0.19702445     0.43982184     302.45521      296.53826      5.9169446      13.20852       300.46022     -76.290708     -572469.87     -571608.67      73457.434     -645066.11    
    176000   176000         0.1974051      2.7039393      300.46649      299.50405      0.96244819     13.183051      300.55474      24.038411     -571328.12     -571599.47      73480.541     -645080.01    
    177000   177000         0.19797381     0.46106494     304.04274      298.39841      5.6443273      13.14518       300.32996      409.01388     -566982.83     -571599.91      73425.588     -645025.5     
    178000   178000         0.19846344    -0.9938119      302.32744      304.94605     -2.6186056      13.11275       300.17583      200.70186     -569341.15     -571606.74      73387.905     -644994.64    
    179000   179000         0.19884657     0.21000188     308.5902       296.19792      12.392277      13.087484      300.99704     -193.43955     -573796.69     -571613.08      73588.677     -645201.76    
    180000   180000         0.19922765     0.32323481     297.97032      289.9192       8.0511175      13.062451      299.30549     -64.826783     -572331.89     -571600.1       73175.123     -644775.23    
    181000   181000         0.19927065     0.17873764     303.85831      289.29841      14.559896      13.059632      300.04279      94.978363     -570542.62     -571614.77      73355.379     -644970.15    
    182000   182000         0.19936809     0.14957216     307.10374      289.70477      17.398969      13.05325       299.46525     -311.34147     -575113.19     -571598.67      73214.18      -644812.85    
    183000   183000         0.19949019     0.39584394     299.37005      292.79574      6.5743117      13.04526       299.48493      98.651645     -570480.12     -571593.73      73218.991     -644812.73    
    184000   184000         0.19979926     0.24333919     305.23919      294.54464      10.694543      13.025081      300.10279      35.885921     -571201.72     -571606.82      73370.049     -644976.86    
    185000   185000         0.1998833      0.14377544     307.57038      289.46992      18.100458      13.019604      300.36696      19.141071     -571391.46     -571607.53      73434.634     -645042.16    
    186000   186000         0.19997414     0.14562634     308.33395      290.46354      17.870404      13.01369       299.32368     -190.4597      -573749.92     -571599.95      73179.57      -644779.52    
    187000   187000         0.1999557      0.54730194     299.30089      294.54593      4.7549648      13.01489       300.0464      -184.69681     -573692.6      -571607.68      73356.262     -644963.94    
    188000   188000         0.20000702     0.16013218     309.56331      293.31173      16.251583      13.01155       300.32851      308.13392     -568125.31     -571603.62      73425.232     -645028.85    
    189000   189000         0.19981689     0.12426095     313.98492      293.04189      20.943036      13.023931      301.36528     -78.74637      -572496.32     -571607.41      73678.706     -645286.11    
    190000   190000         0.19967244     0.19739751     308.03822      294.85466      13.183557      13.033353      300.84182      33.97248      -571223.19     -571606.68      73550.728     -645157.41    
    191000   191000         0.19949343     0.13548001     310.34857      291.13982      19.208749      13.045048      298.45473      169.59164     -569682.06     -571596.46      72967.126     -644563.59    
    192000   192000         0.1994431      0.17096777     306.04845      290.82686      15.221591      13.048341      299.24527     -240.52907     -574311.27     -571596.1       73160.4       -644756.5     
    193000   193000         0.19953396     0.23662907     306.57895      295.58115      10.997809      13.042399      300.99935     -181.26272     -573650.64     -571604.49      73589.242     -645193.73    
    194000   194000         0.19973629     0.23411578     307.2876       296.17172      11.115874      13.029187      298.85129     -413.35854     -576267.01     -571600.89      73064.078     -644664.96    
    195000   195000         0.20010331     0.25075802     306.89996      296.52183      10.378138      13.005289      300.30235     -149.30638     -573294.19     -571608.77      73418.836     -645027.61    
    196000   196000         0.20039203     1.2399657      301.47738      299.37861      2.098769       12.986551      300.10055     -87.038216     -572591.27     -571608.76      73369.501     -644978.26    
    197000   197000         0.20057773     0.38254372     308.34642      301.54354      6.8028864      12.974529      300.25402     -17.811162     -571811.35     -571610.29      73407.02      -645017.31    
    198000   198000         0.20093128     0.20941375     304.84882      292.42174      12.42708       12.951699      300.4431      -194.12743     -573803.59     -571612.22      73453.249     -645065.46    
    199000   199000         0.20081596     0.24093484     302.81469      292.01343      10.801267      12.959136      300.28793     -104.5904      -572786.23     -571605.58      73415.313     -645020.89    
    200000   200000         0.20061411     0.21875805     308.87476      296.9785       11.896255      12.972176      299.99539      89.211193     -570596.84     -571603.89      73343.791     -644947.68    
    201000   201000         0.20057944     0.16816218     306.86671      291.39117      15.475545      12.974418      300.22569     -319.08763     -575220.2      -571618.24      73400.095     -645018.33    
    202000   202000         0.2003154      0.12659888     318.0359       297.47963      20.556275      12.99152       301.41284     -175.57223     -573594.6      -571612.69      73690.333     -645303.02    
    203000   203000         0.20032063     0.20697418     308.50615      295.93259      12.573556      12.99118       300.36704     -258.95249     -574530.1      -571606.96      73434.652     -645041.61    
    204000   204000         0.2004253      0.22562086     305.84373      294.30933      11.534401      12.984396      300.40778     -455.98001     -576746.26     -571599.01      73444.613     -645043.62    
    205000   205000         0.20041215     0.29963735     303.71487      295.0297       8.6851706      12.985248      300.23037     -198.31575     -573835.99     -571597.34      73401.239     -644998.57    
    206000   206000         0.20041413     0.1785436      303.57713      289.00141      14.575719      12.98512       301.20214     -19.539406     -571825.66     -571605.09      73638.821     -645243.91    
    207000   207000         0.20053407     0.24936843     301.09145      290.65548      10.43597       12.977353      300.05552      264.28075     -568625.1      -571608.39      73358.491     -644966.88    
    208000   208000         0.20043432     0.14565752     311.28282      293.41625      17.866578      12.983812      300.24367     -93.697863     -572652.3      -571594.61      73404.491     -644999.1     
    209000   209000         0.20030854     0.17894675     311.64397      297.10108      14.542882      12.991964      300.4832      -533.90593     -577634.4      -571607.5       73463.051     -645070.55    
    210000   210000         0.20031023     0.1250191      308.7576       287.94157      20.816032      12.991855      298.66863      238.85865     -568901.18     -571597.5       73019.421     -644616.92    
    211000   211000         0.20028802     0.25245948     309.2429       298.93471      10.308195      12.993296      300.75119     -149.26188     -573280.83     -571595.91      73528.572     -645124.48    
    212000   212000         0.20042315     0.22433981     305.78957      294.1893       11.600266      12.984535      300.69739     -224.77987     -574148.89     -571611.5       73515.418     -645126.92    
    213000   213000         0.20045004     0.20186945     305.11973      292.22822      12.891507      12.982794      301.47918     -91.323388     -572649.98     -571619.09      73706.554     -645325.65    
    214000   214000         0.20068275     0.18826495     304.06361      290.24053      13.82308       12.967739      300.65533     -111.96722     -572871.48     -571607.56      73505.135     -645112.69    
    215000   215000         0.20074885     0.13701092     312.32104      293.32692      18.994117      12.963469      300.59238      57.076778     -570964.41     -571608.72      73489.744     -645098.46    
    216000   216000         0.20081729     0.15393166     312.00931      295.1031       16.906213      12.959051      300.4637      -286.64146     -574845.84     -571610.14      73458.285     -645068.42    
    217000   217000         0.20072752     0.26872066     304.64543      294.96102      9.6844115      12.964846      299.11778      327.72196     -567895.6      -571595.02      73129.229     -644724.25    
    218000   218000         0.20072856     0.26600031     311.51725      301.73379      9.7834528      12.964779      300.78264     -129.76906     -573066.42     -571601.54      73536.259     -645137.8     
    219000   219000         0.20084943     0.30860312     304.63489      296.20205      8.4328424      12.956977      298.5275      -90.666077     -572623.5      -571600.03      72984.916     -644584.95    
    220000   220000         0.20101488     0.25736024     305.30235      295.19045      10.111902      12.946313      300.37312      32.579341     -571237.38     -571605.15      73436.14      -645041.29    
    221000   221000         0.20091853     0.25412899     306.54572      296.30525      10.240475      12.952521      299.47537     -156.13637     -573360.19     -571597.67      73216.655     -644814.33    
    222000   222000         0.20086895     0.2078962      307.87801      295.36022      12.517792      12.955718      300.68351      130.64524     -570128.54     -571603.3       73512.023     -645115.32    
    223000   223000         0.20094826     0.24210777     311.78892      301.03998      10.748938      12.950605      299.76876     -289.04752     -574870.13     -571607.27      73288.383     -644895.65    
    224000   224000         0.20118448     0.26583518     302.11505      292.32552      9.7895299      12.935398      300.99631     -135.41047     -573130.61     -571602.06      73588.5       -645190.56    
    225000   225000         0.20130656     0.27886204     300.96011      291.62789      9.3322183      12.927554      299.41058     -246.31602     -574380.34     -571599.85      73200.814     -644800.66    
    226000   226000         0.20123955     0.23160151     303.2885       292.05196      11.236548      12.931859      299.63765     -563.27232     -577959.18     -571600.78      73256.328     -644857.11    
    227000   227000         0.20107721     0.1614719      306.27595      290.1592       16.116745      12.9423        300.16283     -296.79221     -574960.87     -571610.58      73384.727     -644995.31    
    228000   228000         0.20090126     0.5339746      301.0896       296.21596      4.8736427      12.953634      300.95377      408.71345     -567002.98     -571616.66      73578.099     -645194.76    
    229000   229000         0.20067017     0.15805454     310.63276      294.16755      16.465212      12.968551      299.89445     -361.72578     -575683.61     -571600.33      73319.112     -644919.45    
    230000   230000         0.20050905     0.13183358     312.36032      292.62027      19.74005       12.978972      300.1004      -12.815279     -571749.91     -571605.25      73369.465     -644974.71    
    231000   231000         0.20051337     0.119749       316.26078      294.52864      21.732135      12.978693      299.91105     -538.87759     -577688.89     -571605.87      73323.17      -644929.04    
    232000   232000         0.20028155     0.21098476     307.71579      295.38124      12.334547      12.993716      301.0118      -133.54631     -573115.59     -571608.08      73592.287     -645200.36    
    233000   233000         0.20024179     0.16525827     313.48406      297.73658      15.747481      12.996295      300.57703      217.61097     -569147.71     -571604.17      73485.993     -645090.16    
    234000   234000         0.20032523     0.2018467      312.56918      299.67622      12.89296       12.990882      301.05941     -288.58451     -574858.64     -571601         73603.925     -645204.93    
    235000   235000         0.20037725     0.3810576      309.03947      302.21005      6.8294176      12.98751       299.94626     -317.8207      -575183.47     -571595.81      73331.778     -644927.59    
    236000   236000         0.20039032     0.19970362     309.07763      296.04631      13.031319      12.986662      300.60752      23.091409     -571349.51     -571610.17      73493.445     -645103.62    
    237000   237000         0.20035927     0.23608447     310.20247      299.17929      11.023179      12.988675      299.72659      234.62699     -568949.18     -571597.72      73278.073     -644875.79    
    238000   238000         0.20031567     0.2177137      308.25538      296.30206      11.95332       12.991502      299.83066     -1.0211808     -571612.8      -571601.27      73303.518     -644904.79    
    239000   239000         0.20046274     0.20330167     305.46409      292.6634       12.800689      12.981971      300.64947     -348.42341     -575540.6      -571607.49      73503.702     -645111.19    
    240000   240000         0.20071933     0.37855224     309.31687      302.44225      6.8746165      12.965376      300.21897      155.40922     -569837.07     -571591.38      73398.452     -644989.83    
    241000   241000         0.20104886     0.17714878     306.71974      292.02926      14.690485      12.944124      299.71508     -132.18901     -573085.98     -571593.79      73275.259     -644869.05    
    242000   242000         0.20096448     0.094935057    314.05594      286.64351      27.412439      12.949559      299.68989      120.57401     -570231.62     -571592.69      73269.102     -644861.8     
    243000   243000         0.20099287     0.13506706     309.4803       290.21282      19.267477      12.94773       300.41722     -75.106866     -572453.7      -571605.87      73446.92      -645052.79    
    244000   244000         0.20121909     0.22551976     304.8842       293.34463      11.539572      12.933173      300.23513      421.56837     -566840.33     -571599.13      73402.404     -645001.53    
    245000   245000         0.20113568     0.37773856     306.75493      299.86551      6.8894249      12.938537      301.05043     -208.20367     -573965.28     -571615.01      73601.731     -645216.74    
    246000   246000         0.20101664     0.20946683     307.68523      295.2613       12.423931      12.946199      300.34757     -166.105       -573478.17     -571603.12      73429.894     -645033.02    
    247000   247000         0.20113702     0.13768243     306.70528      287.80381      18.901479      12.938451      300.51646      141.14759     -570010.82     -571604.14      73471.184     -645075.33    
    248000   248000         0.20140113     0.35222706     306.27858      298.89016      7.38842        12.921484      299.91477     -446.16719     -576638.77     -571602.3       73324.081     -644926.38    
    249000   249000         0.20148645     0.12059134     315.28461      293.70427      21.580335      12.916012      299.53019      221.05851     -569104.53     -571599.9       73230.057     -644829.96    
    250000   250000         0.20122187     0.10860687     317.29193      293.33027      23.961665      12.932995      300.20726      120.22777     -570247.7      -571604.87      73395.589     -645000.46    
    251000   251000         0.20094147     0.17896826     305.9344       291.39327      14.541134      12.951042      300.50687     -93.504792     -572660.63     -571605.11      73468.839     -645073.95    
    252000   252000         0.20079823     0.22768376     309.77122      298.34133      11.429895      12.960281      300.48935      464.00579     -566363.32     -571601.16      73464.557     -645065.72    
    253000   253000         0.20076944     0.20707154     305.31336      292.74571      12.567644      12.962139      299.36342     -86.067039     -572576.14     -571604.59      73189.285     -644793.87    
    254000   254000         0.20071984     0.1885612      310.17563      296.37427      13.801362      12.965342      300.56059      346.20778     -567696.13     -571604.23      73481.973     -645086.2     
    255000   255000         0.20050263     0.13529778     308.63431      289.39969      19.234621      12.979388      300.00796     -7.6019405     -571688.88     -571603.06      73346.864     -644949.93    
    256000   256000         0.20027717     0.18634284     305.35446      291.38879      13.965664      12.994         300.1493      -274.7325      -574703.94     -571602.68      73381.42      -644984.1     
    257000   257000         0.20010077     0.23162882     303.97871      292.74348      11.235223      13.005454      300.46735     -23.540139     -571881.76     -571616.03      73459.178     -645075.2     
    258000   258000         0.20012779     0.14365439     307.05502      288.93931      18.115712      13.003698      299.81036      125.53604     -570185.69     -571602.78      73298.554     -644901.33    
    259000   259000         0.19996434     0.26800329     303.39912      293.68879      9.710334       13.014328      300.45339      426.05815     -566796.23     -571605.71      73455.763     -645061.48    
    260000   260000         0.19993578     0.17279661     306.2715       291.21101      15.060489      13.016187      299.68767      121.68365     -570225.85     -571599.45      73268.559     -644868.01    
    261000   261000         0.19983461     0.1108685      315.22124      291.74837      23.472867      13.022777      300.2801       129.57387     -570142.07     -571604.74      73413.397     -645018.14    
    262000   262000         0.19973209     0.25585706     303.04697      292.87566      10.17131       13.029461      300.76567     -6.7340063     -571682.25     -571606.23      73532.111     -645138.35    
    263000   263000         0.19978839     0.1162838      312.24679      289.86705      22.379743      13.025789      299.86859      130.29605     -570134.74     -571605.56      73312.789     -644918.35    
    264000   264000         0.19979008     0.24166904     306.25223      295.48378      10.768452      13.025679      301.39773     -7.8938955     -571696.51     -571607.4       73686.639     -645294.04    
    265000   265000         0.1995062      0.11330353     319.93759      296.96918      22.968406      13.044213      299.54523     -37.87493      -572017.6      -571590.06      73233.735     -644823.79    
    266000   266000         0.19939686     0.24856538     305.4456       294.97591      10.469686      13.051366      301.51146     -203.93414     -573909.86     -571607.79      73714.444     -645322.23    
    267000   267000         0.19943561     0.15690935     309.3194       292.73402      16.585381      13.04883       300.1361       3.6638617     -571561.02     -571602.37      73378.192     -644980.57    
    268000   268000         0.1993         0.12105535     311.28694      289.78932      21.497617      13.057709      299.62102      268.68332     -568556.84     -571589.82      73252.265     -644842.09    
    269000   269000         0.19914396     0.15964191     309.08598      292.78448      16.301493      13.06794       300.33566      31.438228     -571252.04     -571606.92      73426.98      -645033.9     
    270000   270000         0.19893841     0.55465433     305.18591      300.49398      4.6919339      13.081443      300.56437      149.0138      -569916.6      -571598.71      73482.897     -645081.61    
    271000   271000         0.19894428     0.1379338      307.2159       288.34887      18.867032      13.081057      300.1486       53.078622     -571011.8      -571610.97      73381.247     -644992.22    
    272000   272000         0.19879433     0.14736076     305.44247      287.7824       17.660071      13.090924      300.13164      226.88609     -569032.46     -571593.62      73377.101     -644970.72    
    273000   273000         0.19853891     0.14566015     306.93378      289.06752      17.866256      13.107766      300.47352     -49.14641      -572165.67     -571610.89      73460.684     -645071.58    
    274000   274000         0.19843198     0.14638819     306.97913      289.20173      17.7774        13.114829      300.63278     -344.98031     -575500.29     -571606.04      73499.621     -645105.66    
    275000   275000         0.19825532     0.18236604     310.56814      296.29793      14.270209      13.126515      300.81496      108.98762     -570384.65     -571614.93      73544.163     -645159.09    
    276000   276000         0.19806285     0.18308079     311.63361      297.41912      14.214497      13.139271      300.9997       323.74792     -567959.98     -571614.55      73589.327     -645203.87    
    277000   277000         0.19791628     0.23320793     303.76782      292.60867      11.159147      13.149001      300.27485     -219.32007     -574081.31     -571605.55      73412.115     -645017.67    
    278000   278000         0.19775072     0.15019631     308.80818      291.48151      17.326667      13.16001       300.34216      350.34214     -567651.26     -571606.04      73428.57      -645034.61    
    279000   279000         0.19754976     0.10880932     312.10313      288.18605      23.917082      13.173397      299.52104     -32.783228     -571983.56     -571613.49      73227.821     -644841.31    
    280000   280000         0.19728234     0.17719883     309.23303      294.5467       14.686335      13.191254      300.3228      -133.3141      -573103.28     -571598.39      73423.837     -645022.23    
    281000   281000         0.19710276     0.15251085     304.85478      287.79106      17.063714      13.203273      299.66182     -10.580567     -571715.63     -571596.19      73262.24      -644858.43    
    282000   282000         0.19702053     0.20730746     305.2718       292.71845      12.553342      13.208783      300.36449     -6.4067589     -571684.12     -571611.8       73434.028     -645045.83    
    283000   283000         0.19690602     0.15876202     310.57606      294.18422      16.391839      13.216465      300.59397     -92.555115     -572654.19     -571609.4       73490.134     -645099.53    
    284000   284000         0.19672207     0.12007542     308.40031      286.72726      21.673057      13.228823      301.04068      116.59794     -570294.5      -571610.69      73599.347     -645210.04    
    285000   285000         0.19661598     0.20123835     307.62874      294.6968       12.931936      13.235961      299.75812     -203.26742     -573892.35     -571597.8       73285.782     -644883.58    
    286000   286000         0.19639527     0.26842563     302.53731      292.84225      9.6950559      13.250836      299.43513      123.99017     -570203.81     -571603.45      73206.816     -644810.27    
    287000   287000         0.19631045     0.2676433      306.10992      296.38652      9.7233946      13.256561      299.72216     -192.94606     -573775.03     -571596.99      73276.991     -644873.98    
    288000   288000         0.19613147     0.11189764     316.09441      292.83742      23.256982      13.268658      299.13259     -112.86799     -572882.04     -571607.95      73132.85      -644740.8     
    289000   289000         0.19580079     0.093297847    315.74095      287.84747      27.893478      13.291067      299.85787      55.398062     -570978.23     -571603.58      73310.17      -644913.75    
    290000   290000         0.19553278     0.13224434     307.83819      288.15946      19.678735      13.309285      299.54369      29.396075     -571269.14     -571600.97      73233.358     -644834.33    
    291000   291000         0.19520284     0.17314099     310.09254      295.062        15.030533      13.331781      301.43781     -27.604518     -571924.62     -571613.01      73696.438     -645309.45    
    292000   292000         0.19502766     0.22021298     301.88756      290.06991      11.817657      13.343756      299.85953     -416.59534     -576299.98     -571597.32      73310.576     -644907.89    
    293000   293000         0.19493881     0.11887494     304.7267       282.83478      21.891926      13.349838      300.016       -71.247879     -572405.77     -571601.5       73348.831     -644950.33    
    294000   294000         0.19479944     0.34326702     302.40764      294.82636      7.5812743      13.359389      299.30463     -61.385301     -572288.73     -571595.79      73174.912     -644770.71    
    295000   295000         0.19455764     0.21198216     308.29148      296.01497      12.276512      13.375992      300.7379       276.03844     -568490.05     -571606.06      73525.323     -645131.38    
    296000   296000         0.19415673     0.10226638     313.55315      288.10586      25.447284      13.403612      299.74939      318.27092     -568006.64     -571599.38      73283.648     -644883.03    
    297000   297000         0.19387426     0.10015174     315.71778      289.73319      25.984584      13.423141      299.42222      114.37442     -570306.5      -571597.59      73203.661     -644801.25    
    298000   298000         0.19359819     0.15492308     306.90543      290.10741      16.798022      13.442282      300.85687      347.21077     -567688.29     -571607.71      73554.408     -645162.12    
    299000   299000         0.19349714     0.21461133     310.7088       298.58268      12.126114      13.449302      300.91882      136.52446     -570060.88     -571602.01      73569.555     -645171.57    
    300000   300000         0.1935376      0.2703508      305.46939      295.84337      9.6260171      13.44649       300.29226     -121.93997     -572978.43     -571601.93      73416.372     -645018.3     
    301000   301000         0.19340762     0.10224357     316.04882      290.59586      25.45296       13.455527      300.6591       240.32201     -568893.02     -571605.85      73506.058     -645111.9     
    302000   302000         0.19314101     0.13689027     307.11561      288.10475      19.010858      13.474101      300.32332      329.7643      -567887.6      -571610.08      73423.963     -645034.04    
    303000   303000         0.19290228     0.13106633     310.52074      290.66513      19.855606      13.490776      300.45775      84.589128     -570644.45     -571599.32      73456.83      -645056.15    
    304000   304000         0.19275997     0.34073871     306.82691      299.18939      7.6375281      13.500736      300.67642     -351.6239      -575570.51     -571601.27      73510.292     -645111.56    
    305000   305000         0.1926162      0.11833988     312.63375      290.64284      21.990908      13.510813      301.08766     -293.26446     -574917.39     -571606.93      73610.831     -645217.76    
    306000   306000         0.19257708     0.23217951     301.61474      290.40616      11.208575      13.513558      300.34828     -185.43589     -573701.43     -571608.17      73430.068     -645038.24    
    307000   307000         0.192459       0.13404038     307.0723       287.65725      19.415055      13.521848      300.52334      120.94729     -570241.1      -571606.4       73472.865     -645079.26    
    308000   308000         0.19241458     0.13092822     305.55495      285.6784       19.876551      13.52497       300.48101      352.48157     -567625.83     -571604.75      73462.517     -645067.27    
    309000   309000         0.19231738     0.13448777     309.78516      290.43469      19.350469      13.531806      299.79608      53.566666     -571007.42     -571612.1       73295.064     -644907.16    
    310000   310000         0.1920776      0.15465666     315.42372      298.59676      16.82696       13.548699      300.45507      79.759429     -570706.75     -571607.1       73456.175     -645063.28    
    311000   311000         0.19206743     0.2358549      309.92524      298.89133      11.033909      13.549416      301.04224      183.56709     -569528.89     -571601.05      73599.728     -645200.78    
    312000   312000         0.19185801     0.16376366     306.97825      291.08704      15.891202      13.564205      301.1468       122.71968     -570221.85     -571607.15      73625.291     -645232.44    
    313000   313000         0.19173736     0.17297258     310.97813      295.93297      15.045168      13.57274       300.67746      77.251118     -570719.11     -571591.14      73510.545     -645101.69    
    314000   314000         0.19157783     0.30183421     309.89469      301.27273      8.6219565      13.584043      301.2227      -516.54385     -577442.31     -571611.4       73643.846     -645255.25    
    315000   315000         0.19142427     0.17464228     308.26383      293.3625       14.901326      13.59494       300.6094      -207.70694     -573948.96     -571604.3       73493.905     -645098.2     
    316000   316000         0.19138195     0.24599378     305.39872      294.81958      10.579135      13.597946      301.00234     -163.90591     -573453.28     -571603.05      73589.972     -645193.03    
    317000   317000         0.19139881     0.11731359     307.44638      285.26309      22.18329       13.596749      299.77516      273.88611     -568513.97     -571605.69      73289.948     -644895.63    
    318000   318000         0.19137914     0.32537033     306.22488      298.2266       7.9982752      13.598146      300.2548       331.28074     -567871.57     -571611.18      73407.212     -645018.39    
    319000   319000         0.19140798     0.18744029     308.05949      294.17559      13.883895      13.596097      300.81679      327.85719     -567905.56     -571606.52      73544.609     -645151.13    
    320000   320000         0.191522       0.20709862     304.77212      292.20612      12.566001      13.588002      300.0594      -97.695697     -572698.43     -571595.61      73359.44      -644955.05    
    321000   321000         0.19152355     0.19537225     306.01407      292.69385      13.32022       13.587893      300.81417      110.05665     -570368.32     -571610.68      73543.968     -645154.64    
    322000   322000         0.19154171     0.22596736     307.88176      296.36505      11.516714      13.586605      300.52048     -539.21006     -577699.02     -571612.25      73472.166     -645084.41    
    323000   323000         0.19166477     0.41287918     302.5176       296.21455      6.3030581      13.577881      299.76191     -56.062464     -572227.77     -571594.92      73286.708     -644881.62    
    324000   324000         0.19172645     0.16626546     307.74695      292.09487      15.652087      13.573513      298.83546     -147.9358      -573266.05     -571596.1       73060.208     -644656.31    
    325000   325000         0.19172202     0.14886818     311.76147      294.28022      17.481247      13.573826      300.1309       125.09751     -570200.11     -571612.25      73376.922     -644989.17    
    326000   326000         0.19165439     0.20389072     305.29505      292.53134      12.763707      13.578617      300.25067     -35.083747     -572002.36     -571606.32      73406.203     -645012.53    
    327000   327000         0.19160008     0.20473816     306.8121       294.10122      12.710877      13.582465      299.64251      63.414252     -570879.79     -571595.63      73257.518     -644853.15    
    328000   328000         0.19173034     0.32768426     301.09269      293.15089      7.9417958      13.573237      300.45708      64.11845      -570883.76     -571607.55      73456.666     -645064.22    
    329000   329000         0.19185852     0.54932277     303.59321      298.85574      4.7374724      13.564169      300.66982      182.98238     -569549.63     -571615.19      73508.678     -645123.87    
    330000   330000         0.19194944     0.21013038     306.64204      294.25735      12.384698      13.557744      299.97278      4.3392514     -571547.64     -571596.62      73338.263     -644934.89    
    331000   331000         0.19198671     0.14355772     308.95905      290.83114      18.127911      13.555112      298.81641      73.450582     -570764.6      -571593.74      73055.55      -644649.29    
    332000   332000         0.19212163     0.17153347     313.54481      298.37342      15.171391      13.545593      300.39163      38.983221     -571161.62     -571601.68      73440.664     -645042.34    
    333000   333000         0.19228397    -5.3998824      300.06344      300.54537     -0.48193669     13.534157      299.45395     -317.17706     -575182.11     -571601.71      73211.419     -644813.13    
    334000   334000         0.19224283     0.17092778     307.71621      292.49105      15.225152      13.537054      299.44229     -203.89565     -573897.98     -571596.34      73208.567     -644804.9     
    335000   335000         0.19224049     0.15245862     309.56236      292.4928       17.069559      13.537218      301.29098      358.26286     -567570.56     -571614.75      73660.542     -645275.29    
    336000   336000         0.19229118     0.86030321     300.17272      297.14774      3.0249817      13.533649      298.80495     -48.127727     -572135.25     -571591.97      73052.748     -644644.72    
    337000   337000         0.19228003     0.13668055     314.37333      295.3333       19.040028      13.534434      300.45051     -85.994067     -572573.2      -571602.47      73455.061     -645057.53    
[...]
    931000   931000         0.18967134     0.1375081      307.00592      288.08048      18.925441      13.720584      300.40001     -154.2521      -573345.3      -571604.06      73442.713     -645046.77    
    932000   932000         0.18965264     0.17183491     310.22136      295.07659      15.144778      13.721936      301.08273     -137.52148     -573160.27     -571607.89      73609.628     -645217.51    
    933000   933000         0.18959247     0.14904116     305.43371      287.97276      17.460958      13.726291      300.30175     -496.23869     -577208.84     -571607.14      73418.691     -645025.83    
    934000   934000         0.18956668     0.23722029     300.34915      289.37875      10.9704        13.728159      300.80082     -169.01552     -573523.07     -571615.17      73540.705     -645155.88    
    935000   935000         0.18955256     0.17408708     304.58139      289.63254      14.948848      13.729181      300.99181     -74.994996     -572446.96     -571600.39      73587.398     -645187.79    
    936000   936000         0.18956684     0.12743822     307.84807      287.42718      20.420887      13.728147      300.67732     -639.43101     -578817.95     -571599.85      73510.511     -645110.36    
    937000   937000         0.18954792     0.14795285     309.47511      291.88572      17.589397      13.729518      300.98635     -321.44558     -575227.23     -571598.65      73586.063     -645184.72    
    938000   938000         0.18953227     0.16938465     305.91342      290.54956      15.363857      13.730651      300.34139     -167.17444     -573491.4      -571604.28      73428.382     -645032.66    
    939000   939000         0.18951684     0.33900392     300.38476      292.70815      7.6766117      13.731769      300.78036     -335.37917     -575387.91     -571602.05      73535.703     -645137.75    
    940000   940000         0.18950854     0.18271192     305.05218      290.80899      14.243194      13.73237       299.92931      153.58855     -569850.52     -571584.28      73327.635     -644911.91    
    941000   941000         0.18948337     0.37310075     296.82746      289.8524       6.9750635      13.734194      300.15561     -357.53022     -575633.08     -571597.16      73382.962     -644980.13    
    942000   942000         0.189466       0.13855746     304.85293      286.07082      18.78211       13.735453      301.2835       107.77292     -570387.34     -571603.92      73658.711     -645262.63    
    943000   943000         0.18945625     0.1267568      309.08846      288.5578       20.530665      13.736161      301.18137     -217.53739     -574060.71     -571605.08      73633.742     -645238.83    
    944000   944000         0.18938801     0.13229087     309.87198      290.20016      19.671815      13.74111       301.20607     -40.016321     -572060.37     -571608.66      73639.781     -645248.44    
    945000   945000         0.18933947     0.18622112     306.11281      292.13802      13.974793      13.744633      300.05812     -221.05624     -574093.79     -571598.43      73359.128     -644957.56    
    946000   946000         0.18928029     0.21252917     306.74333      294.49842      12.244914      13.74893       301.24883      18.822746     -571388.46     -571600.94      73650.234     -645251.17    
    947000   947000         0.18927759     0.21115596     308.40784      296.0833       12.324547      13.749126      300.49203      173.41302     -569642.53     -571600.07      73465.211     -645065.28    
    948000   948000         0.18929984     0.29354604     305.60435      296.73896      8.8653944      13.74751       300.56504      355.83199     -567588.16     -571604.91      73483.06      -645087.97    
    949000   949000         0.18935328     0.482673       294.91608      289.52444      5.391645       13.74363       301.16381     -236.14763     -574275.4      -571609.69      73629.45      -645239.14    
    950000   950000         0.18941528     0.50901842     303.86152      298.74894      5.112588       13.739132      301.34609     -308.60411     -575097.16     -571613.53      73674.015     -645287.55    
    951000   951000         0.18944888     0.14017752     305.01078      286.44574      18.565042      13.736695      300.04867     -310.69739     -575101.13     -571593.88      73356.817     -644950.7     
    952000   952000         0.18948799     0.32673796     301.77036      293.80557      7.9647968      13.733859      300.11875     -92.994019     -572655.51     -571605.76      73373.951     -644979.71    
    953000   953000         0.18952804     0.44162538     304.67036      298.77758      5.8927805      13.730957      299.618        118.00421     -570272.14     -571604.21      73251.524     -644855.73    
    954000   954000         0.18955266     0.24448654     305.78449      295.14013      10.644355      13.729174      300.64976      249.92698     -568789.12     -571610.37      73503.773     -645114.15    
    955000   955000         0.18953786     0.12220904     313.91366      292.61899      21.294672      13.730246      300.51976     -136.12524     -573139.48     -571602.85      73471.99      -645074.84    
    956000   956000         0.18954099     0.21244193     305.14215      292.89221      12.249943      13.730019      300.56128     -117.51204     -572938.67     -571612.16      73482.141     -645094.3     
    957000   957000         0.18956488     0.13783991     309.65456      290.77467      18.879883      13.728289      300.44082     -328.88724     -575319.79     -571607.2       73452.692     -645059.9     
    958000   958000         0.18958649     0.18624927     308.229        294.25632      13.97268       13.726725      300.78803      158.53926     -569828.77     -571618.41      73537.577     -645155.99    
    959000   959000         0.18959408     0.21266063     307.19472      294.95737      12.237345      13.726174      300.53932     -355.35661     -575606.88     -571595.5       73476.773     -645072.28    
    960000   960000         0.18959059     0.18223839     305.52457      291.24437      14.280204      13.726427      300.27873     -215.93273     -574037.86     -571600.34      73413.063     -645013.4     
    961000   961000         0.18958445     0.18119879     309.77119      295.40906      14.362135      13.726872      300.80685     -33.925718     -571981.46     -571598.5       73542.179     -645140.68    
    962000   962000         0.18955997     0.20645853     311.38387      298.77891      12.60496       13.728645      299.98987     -64.650871     -572323.79     -571593.99      73342.442     -644936.43    
    963000   963000         0.18952236     0.19988652     305.20196      292.18256      13.019395      13.731369      300.34911     -45.261869     -572115.53     -571604.6       73430.269     -645034.87    
    964000   964000         0.18953024     0.18179525     303.64777      289.33275      14.315013      13.730798      300.01702      298.51751     -568231.48     -571601.24      73349.079     -644950.32    
    965000   965000         0.1895295      0.23281381     304.53282      293.35478      11.178037      13.730852      300.04843     -207.37424     -573938.84     -571597.93      73356.759     -644954.69    
    966000   966000         0.18953454     0.34802545     301.20575      293.72813      7.4776183      13.730486      299.61743     -70.648496     -572401.02     -571603.52      73251.385     -644854.9     
    967000   967000         0.18950049     0.17224896     306.04976      290.94138      15.108372      13.732954      301.13525     -664.1089      -579097.32     -571600.65      73622.467     -645223.12    
    968000   968000         0.18946356     0.16180758     306.91295      290.82964      16.08331       13.73563       301.03452     -347.49131     -575517.02     -571594.43      73597.842     -645192.27    
    969000   969000         0.18944682     0.16975349     307.58993      292.25946      15.330474      13.736844      300.583        148.76171     -569928.61     -571607.88      73487.452     -645095.34    
    970000   970000         0.18944347     0.61252917     304.23328      299.98466      4.2486164      13.737087      300.96015     -569.44983     -578035.77     -571607.64      73579.657     -645187.3     
    971000   971000         0.18943737     0.26381519     308.83555      298.97107      9.8644867      13.737529      301.85802     -393.35341     -576056.42     -571616.12      73799.172     -645415.29    
    972000   972000         0.18944178     0.22473467     303.03026      291.45038      11.579884      13.73721       300.35345     -358.07502     -575640.12     -571598.05      73431.33      -645029.38    
    973000   973000         0.18942409     0.16577431     308.32134      292.62288      15.698461      13.738492      300.04776      258.74172     -568685.51     -571606.27      73356.594     -644962.86    
    974000   974000         0.18938322     0.1069214      312.12138      287.78199      24.339388      13.741457      302.06706      319.09087     -568009.59     -571611.59      73850.278     -645461.87    
    975000   975000         0.18933331     0.2182064      306.82087      294.89454      11.926329      13.74508       301.1931      -299.14837     -574993.57     -571616.69      73636.61      -645253.3     
    976000   976000         0.18927568     0.20429189     305.78367      293.04502      12.738643      13.749265      300.9828       152.68043     -569885.58     -571609.09      73585.196     -645194.28    
    977000   977000         0.18924904     0.13497559     313.28119      294.00065      19.280535      13.7512        301.45468     -632.498       -578746.37     -571606.53      73700.563     -645307.09    
    978000   978000         0.18922488     0.28794146     301.68539      292.64744      9.0379531      13.752956      299.98208      112.286       -570336.51     -571604.03      73340.537     -644944.57    
    979000   979000         0.18919724     0.11634323     311.08356      288.71525      22.368309      13.754965      301.15859     -182.50793     -573665.13     -571604.93      73628.173     -645233.1     
    980000   980000         0.18915498     0.11076473     314.84938      291.35452      23.494856      13.758038      301.30927     -54.901514     -572217.36     -571597.62      73665.011     -645262.63    
    981000   981000         0.18911069     0.1747435      308.73225      293.83955      14.892694      13.76126       299.66445      123.71726     -570198.96     -571595.52      73262.883     -644858.41    
    982000   982000         0.1890795      0.15743872     309.62549      293.09588      16.529615      13.76353       300.82964      294.90613     -568276.72     -571605.71      73547.752     -645153.47    
    983000   983000         0.18909699     0.1581389      306.5579       290.10147      16.456429      13.762257      300.42138     -191.93211     -573771.35     -571604.76      73447.939     -645052.7     
    984000   984000         0.18917232     0.24093938     305.77949      294.97843      10.801063      13.756778      300.33784     -220.11197     -574087.94     -571603.25      73427.515     -645030.76    
    985000   985000         0.1892303      0.44197671     298.19858      292.31049      5.8880963      13.752562      300.35877      458.99396     -566419.75     -571601.02      73432.631     -645033.65    
    986000   986000         0.18927429     0.21207427     306.99404      294.72286      12.271179      13.749366      300.86549     -150.2553      -573292.7      -571596.57      73556.517     -645153.09    
    987000   987000         0.18932197     0.58316295     303.27826      298.8157       4.4625631      13.745903      300.41734      241.14529     -568884.35     -571606.47      73446.95      -645053.42    
    988000   988000         0.18935579     0.47307789     303.02399      297.52299      5.5009999      13.743448      300.93195     -32.010087     -571964.85     -571603.51      73572.763     -645176.27    
    989000   989000         0.18942931     0.28126351     302.71665      293.46411      9.2525385      13.738114      299.79606      147.35144     -569936.22     -571599.57      73295.058     -644894.63    
    990000   990000         0.18948774     0.44578764     299.58017      293.74241      5.8377604      13.733878      300.84099     -309.56603     -575097.68     -571603.2       73550.524     -645153.72    
    991000   991000         0.18952385     0.24867759     306.50055      296.03559      10.464962      13.731261      301.14817     -127.3314      -573034.86     -571597.51      73625.625     -645223.13    
    992000   992000         0.18954559     0.13639035     309.65761      290.57707      19.080539      13.729686      299.85294      241.0574      -568871.16     -571592.29      73308.964     -644901.25    
    993000   993000         0.18953783     0.13132199     311.89316      292.07621      19.816951      13.730248      300.27249     -484.19898     -577065.31     -571599.52      73411.536     -645011.05    
    994000   994000         0.1895445      0.23752511     307.9473       296.99098      10.956321      13.729765      301.10576     -485.38201     -577077.15     -571598         73615.256     -645213.26    
    995000   995000         0.18953313     0.19182771     304.654        291.08765      13.566348      13.730588      300.66513      194.70607     -569412.08     -571609.98      73507.531     -645117.51    
    996000   996000         0.18954101     0.39557168     303.72573      297.14689      6.5788367      13.730018      300.69965      64.630927     -570872.83     -571602.41      73515.971     -645118.38    
    997000   997000         0.18950824     0.13238604     306.30322      286.64555      19.657673      13.732392      300.44624     -51.080815     -572175.71     -571599.1       73454.016     -645053.11    
    998000   998000         0.18950188     0.20808667     307.63105      295.12472      12.506334      13.732853      300.00631      171.14726     -569672.91     -571604.87      73346.462     -644951.33    
    999000   999000         0.18944584     0.14182551     307.42167      289.07235      18.349319      13.736916      299.92948     -265.9957      -574592.22     -571589.58      73327.677     -644917.26    
   1000000   1000000        0.18944293     0.11953271     314.58938      292.81792      21.771458      13.737126      300.42529     -18.594231     -571807.02     -571597.12      73448.895     -645046.01    
   1001000   1001000        0.18943691     0.28426916     305.13793      295.98322      9.1547091      13.737563      299.75101      193.23299     -569414.81     -571596.08      73284.043     -644880.13    
   1002000   1002000        0.18940134     0.12839509     309.30658      289.03789      20.268699      13.740143      301.30647      357.91335     -567563.3      -571603.54      73664.327     -645267.86    
   1003000   1003000        0.18933867     0.15103278     304.53497      287.30427      17.230706      13.744691      300.31402     -619.20931     -578587.93     -571598.1       73421.691     -645019.79    
   1004000   1004000        0.18928186     0.14462798     306.35515      288.36139      17.993762      13.748816      300.34313     -103.99281     -572777.29     -571603.38      73428.808     -645032.19    
   1005000   1005000        0.18929392     0.30208898     308.25315      299.63847      8.6146852      13.74794       301.17878      194.71582     -569411.16     -571609.17      73633.109     -645242.28    
   1006000   1006000        0.18927077     0.19895503     311.81213      298.73178      13.08035       13.749622      301.13312      311.6046      -568099.85     -571617.34      73621.945     -645239.29    
   1007000   1007000        0.18923393     0.22198212     304.81198      293.08851      11.723473      13.752298      300.3158       28.011162     -571289.88     -571606.08      73422.125     -645028.2     
   1008000   1008000        0.18915677     0.15771628     312.39047      295.88994      16.500526      13.757908      300.23293     -77.32421      -572472.39     -571599.53      73401.865     -645001.39    
   1009000   1009000        0.18912418     0.22056032     307.68952      295.89047      11.799046      13.760279      300.55601     -83.747446     -572554.41     -571609.04      73480.853     -645089.89    
   1010000   1010000        0.18913855     0.19638421     302.206        288.95442      13.251582      13.759233      300.27972      193.82451     -569416.79     -571604.74      73413.305     -645018.05    
   1011000   1011000        0.18909953     0.1778849      303.12972      288.50003      14.629693      13.762073      300.93852     -349.1611      -575533.62     -571592.18      73574.371     -645166.55    
   1012000   1012000        0.18906367     0.16781251     306.394        290.88621      15.507792      13.764683      301.53818      19.744222     -571389.45     -571612.33      73720.977     -645333.31    
   1013000   1013000        0.18898266     0.11575465     311.24664      288.76459      22.482046      13.770583      300.79845     -430.09388     -576466.09     -571611.05      73540.126     -645151.18    
   1014000   1014000        0.18889526     0.12407049     313.79271      292.81752      20.975184      13.776955      300.81305      148.53029     -569928.1      -571604.75      73543.695     -645148.45    
   1015000   1015000        0.1888265      0.12272013     308.5423       287.33632      21.205987      13.781971      300.77006     -419.1641      -576327.55     -571595.89      73533.185     -645129.08    
   1016000   1016000        0.18878162     0.15969633     310.09402      293.79808      16.295937      13.785248      300.28843     -190.5133      -573748.17     -571597.59      73415.434     -645013.03    
   1017000   1017000        0.18874106     0.15249112     309.24742      292.1815       17.065921      13.78821       300.54405      153.1114      -569871.19     -571599.56      73477.928     -645077.49    
   1018000   1018000        0.18872481     0.15923997     309.22002      292.87738      16.34264       13.789398      299.45582      15.037895     -571419.99     -571589.74      73211.876     -644801.62    
   1019000   1019000        0.18873518     0.15808767     307.45389      290.99213      16.461761      13.78864       299.7058      -227.68982     -574162.92     -571592.68      73272.99      -644865.67    
   1020000   1020000        0.18871419     0.13759749     310.80394      291.8908       18.913146      13.790174      301.45322     -127.24212     -573041.69     -571605.34      73700.207     -645305.55    
Loop time of 43940.9 on 32 procs for 1000000 steps with 82020 atoms

Performance: 1.966 ns/day, 12.206 hours/ns, 22.758 timesteps/s, 1.867 Matom-step/s
99.5% CPU use with 32 MPI tasks x 1 OpenMP threads

MPI task timing breakdown:
Section |  min time  |  avg time  |  max time  |%varavg| %total
---------------------------------------------------------------
Pair    | 20004      | 21919      | 25731      |1096.5 | 49.88
Bond    | 439.81     | 486.04     | 633.46     | 156.7 |  1.11
Kspace  | 13438      | 17249      | 19191      |1244.3 | 39.25
Neigh   | 2004       | 2045.5     | 2062.4     |  34.1 |  4.66
Comm    | 1046.8     | 1445       | 1847.6     | 621.1 |  3.29
Output  | 0.13225    | 0.16726    | 0.47967    |  14.4 |  0.00
Modify  | 218.86     | 719.24     | 1177.1     |1196.6 |  1.64
Other   |            | 77.4       |            |       |  0.18

Nlocal:        2563.12 ave        2719 max        2440 min
Histogram: 2 4 8 2 5 2 1 3 1 4
Nghost:        17313.4 ave       18165 max       16730 min
Histogram: 6 5 7 2 0 4 0 0 4 4
Neighs:     1.5616e+06 ave 1.77104e+06 max 1.44254e+06 min
Histogram: 5 6 7 3 3 1 3 0 0 4

Total # of neighbors = 49971089
Ave neighs/atom = 609.25493
Ave special neighs/atom = 10.922214
Neighbor list builds = 51845
Dangerous builds = 0
Total wall time: 12:26:53
