LAMMPS (2 Aug 2023 - Development - patch_2Aug2023-439-g49f08e6231)
OMP_NUM_THREADS environment is not set. Defaulting to 1 thread. (src/comm.cpp:98)
  using 1 OpenMP thread(s) per MPI task
Reading data file ...
  orthogonal box = (-41.07686 -32.676339 -31.575799) to (41.07686 32.676339 31.575799)
  4 by 4 by 2 MPI processor grid
  reading atoms ...
  32020 atoms
  reading velocities ...
  32020 velocities
  scanning bonds ...
  3 = max bonds/atom
  scanning angles ...
  6 = max angles/atom
  scanning dihedrals ...
  15 = max dihedrals/atom
  scanning impropers ...
  1 = max impropers/atom
  reading bonds ...
  34010 bonds
  reading angles ...
  60000 angles
  reading dihedrals ...
  95910 dihedrals
  reading impropers ...
  10000 impropers
Finding 1-2 1-3 1-4 neighbors ...
  special bond factors lj:    0        0        0.5     
  special bond factors coul:  0        0        0.8333333333333334
     4 = max # of 1-2 neighbors
     8 = max # of 1-3 neighbors
    18 = max # of 1-4 neighbors
    22 = max # of special neighbors
  special bonds CPU = 0.072 seconds
  read_data CPU = 0.549 seconds
PPPM initialization ...
  using 12-bit tables for long-range coulomb (src/kspace.cpp:342)
  G vector (1/distance) = 0.23713698
  grid = 45 36 36
  stencil order = 5
  estimated absolute RMS force accuracy = 0.00028675184
  estimated relative force accuracy = 8.6354464e-07
  using double precision FFTW3
  3d grid and FFT values/proc = 7200 3240
Generated 10 of 10 mixed pair_coeff terms from arithmetic mixing rule
Neighbor list info ...
  update: every = 1 steps, delay = 0 steps, check = yes
  max neighbors/atom: 2000, page size: 100000
  master list distance cutoff = 14
  ghost atom cutoff = 14
  binsize = 7, bins = 12 10 10
  1 neighbor lists, perpetual/occasional/extra = 1 0 0
  (1) pair lj/charmm/coul/long, perpetual
      attributes: half, newton on
      pair build: half/bin/newton
      stencil: half/bin/3d
      bin: standard
Setting up Verlet run ...
  Unit style    : real
  Current step  : 0
  Time step     : 1
Per MPI rank memory allocation (min/avg/max) = 17.69 | 17.74 | 18.22 Mbytes
   Step          Time           Temp         Temp_hot      Temp_cold        Press         Enthalpy        TotEng         KinEng         PotEng    
         0   0              299.02528      314.78043      294.17014     -153.33602      55796.692      56554.912      28539.738      28015.174    
      1000   1000           299.34921      306.88277      302.48124     -533.94942      53910.169      56550.455      28570.654      27979.802    
      2000   2000           300.69825      311.94515      296.8697       293.70498      57997.453      56545.133      28699.41       27845.723    
      3000   3000           300.66594      298.90102      303.3049       304.79857      58051.772      56544.597      28696.326      27848.271    
      4000   4000           302.24223      310.93223      302.58512      50.633677      56790.187      56539.813      28846.771      27693.042    
      5000   5000           298.64446      300.61251      291.02009     -593.91796      53609.237      56546.057      28503.391      28042.667    
      6000   6000           300.70099      295.76503      300.52449     -2.0153206      56533.387      56543.353      28699.671      27843.681    
      7000   7000           299.95165      306.0922       311.93222     -241.02072      55351.872      56543.678      28628.153      27915.525    
      8000   8000           299.2205       309.1254       288.48079     -29.12992       56404.068      56548.111      28558.369      27989.741    
      9000   9000           298.40771      297.34255      306.05503     -542.18678      53869.292      56550.31       28480.795      28069.516    
     10000   10000          298.80037      303.56577      298.95382      74.129188      56914.001      56547.445      28518.272      28029.174    
Loop time of 102.74 on 32 procs for 10000 steps with 32020 atoms

Performance: 8.410 ns/day, 2.854 hours/ns, 97.333 timesteps/s, 3.117 Matom-step/s
99.5% CPU use with 32 MPI tasks x 1 OpenMP threads

MPI task timing breakdown:
Section |  min time  |  avg time  |  max time  |%varavg| %total
---------------------------------------------------------------
Pair    | 68.527     | 75.45      | 84.459     |  39.4 | 73.44
Bond    | 1.9108     | 2.0576     | 2.2264     |   6.0 |  2.00
Kspace  | 8.5584     | 17.555     | 24.516     |  82.0 | 17.09
Neigh   | 3.3896     | 3.4264     | 3.4444     |   0.8 |  3.34
Comm    | 2.7367     | 3.3758     | 3.8195     |  16.5 |  3.29
Output  | 0.00081542 | 0.0012878  | 0.0027407  |   1.1 |  0.00
Modify  | 0.051631   | 0.058828   | 0.091803   |   3.7 |  0.06
Other   |            | 0.8153     |            |       |  0.79

Nlocal:        1000.62 ave        1047 max         950 min
Histogram: 2 2 3 1 5 8 4 2 4 1
Nghost:        11111.1 ave       11244 max       10988 min
Histogram: 4 3 2 4 2 7 3 2 4 1
Neighs:         542914 ave      601481 max      494271 min
Histogram: 2 2 3 6 4 8 4 1 1 1

Total # of neighbors = 17373263
Ave neighs/atom = 542.57536
Ave special neighs/atom = 11.48782
Neighbor list builds = 275
Dangerous builds = 0
WARNING: New thermo_style command, previous thermo_modify settings will be lost (src/output.cpp:904)
PPPM initialization ...
  using 12-bit tables for long-range coulomb (src/kspace.cpp:342)
  G vector (1/distance) = 0.23713698
  grid = 45 36 36
  stencil order = 5
  estimated absolute RMS force accuracy = 0.00028675184
  estimated relative force accuracy = 8.6354464e-07
  using double precision FFTW3
  3d grid and FFT values/proc = 7200 3240
Generated 10 of 10 mixed pair_coeff terms from arithmetic mixing rule
Setting up Verlet run ...
  Unit style    : real
  Current step  : 10000
  Time step     : 1
Per MPI rank memory allocation (min/avg/max) = 18.44 | 18.53 | 18.98 Mbytes
   Step          Time           Temp         Temp_hot      Temp_cold        E_hot          E_cold       dTemp_step       Press         Enthalpy        TotEng         KinEng         PotEng    
     10000   10000          298.80037      303.25371      298.95382     -0             -0              4.2998944      74.129188      56914.001      56547.445      28518.272      28029.174    
     11000   11000          300.54898      357.78022      259.4224      -1100.371       1243.177       98.357817      413.52571      58445.562      56400.75       28685.164      27715.587    
     12000   12000          299.39004      340.04749      257.71647     -1407.5948      1561.3977      82.331021      484.136        58786.548      56392.581      28574.55       27818.03     
     13000   13000          298.92356      344.09717      250.71053     -1748.7941      1806.5183      93.386638     -254.00053      55254.79       56510.778      28530.029      27980.749    
     14000   14000          300.77485      347.73442      247.31724     -1904.2702      2053.2142      100.41718     -63.045471      56100.475      56412.223      28706.721      27705.503    
     15000   15000          301.92002      349.13466      256.69613     -2267.6786      2172.301       92.438531      24.322346      56784.556      56664.286      28816.018      27848.268    
     16000   16000          300.59082      354.76438      251.6873      -2407.1727      2453.1303      103.07708      417.71739      58591.179      56525.64       28689.156      27836.484    
     17000   17000          298.33902      350.00247      252.41983     -2411.0504      2624.0524      97.58264       113.38433      56925.563      56364.897      28474.239      27890.658    
     18000   18000          299.33336      349.36753      248.23534     -2761.0001      2968.6168      101.13219     -847.52251      52180.353      56371.203      28569.141      27802.062    
     19000   19000          299.18488      344.71131      250.02614     -2867.5938      3059.6772      94.685175      166.40758      57213.324      56390.468      28554.97       27835.498    
     20000   20000          299.23329      344.34642      246.86622     -2999.2046      3133.4245      97.480199      235.52947      57628.552      56463.9        28559.59       27904.31     
Loop time of 107.187 on 32 procs for 10000 steps with 32020 atoms

Performance: 8.061 ns/day, 2.977 hours/ns, 93.295 timesteps/s, 2.987 Matom-step/s
99.5% CPU use with 32 MPI tasks x 1 OpenMP threads

MPI task timing breakdown:
Section |  min time  |  avg time  |  max time  |%varavg| %total
---------------------------------------------------------------
Pair    | 67.59      | 75.389     | 85.632     |  42.3 | 70.33
Bond    | 1.9078     | 2.0643     | 2.2399     |   6.8 |  1.93
Kspace  | 9.5027     | 19.812     | 27.905     |  83.8 | 18.48
Neigh   | 3.5576     | 3.6068     | 3.6409     |   1.2 |  3.36
Comm    | 2.8465     | 3.8654     | 4.5233     |  24.7 |  3.61
Output  | 0.00099221 | 0.0011183  | 0.0028881  |   1.0 |  0.00
Modify  | 1.7208     | 2.1668     | 2.665      |  23.4 |  2.02
Other   |            | 0.2809     |            |       |  0.26

Nlocal:        1000.62 ave        1058 max         926 min
Histogram: 1 0 2 5 3 6 6 4 3 2
Nghost:        11130.6 ave       11258 max       10981 min
Histogram: 1 2 3 5 2 4 8 2 1 4
Neighs:         542872 ave      604702 max      471011 min
Histogram: 1 0 1 6 7 3 10 1 1 2

Total # of neighbors = 17371894
Ave neighs/atom = 542.5326
Ave special neighs/atom = 11.48782
Neighbor list builds = 287
Dangerous builds = 0
PPPM initialization ...
  using 12-bit tables for long-range coulomb (src/kspace.cpp:342)
  G vector (1/distance) = 0.23713698
  grid = 45 36 36
  stencil order = 5
  estimated absolute RMS force accuracy = 0.00028675184
  estimated relative force accuracy = 8.6354464e-07
  using double precision FFTW3
  3d grid and FFT values/proc = 7200 3240
Generated 10 of 10 mixed pair_coeff terms from arithmetic mixing rule
Setting up Verlet run ...
  Unit style    : real
  Current step  : 20000
  Time step     : 1
Per MPI rank memory allocation (min/avg/max) = 18.69 | 18.78 | 19.23 Mbytes
   Step          Time           Temp         Temp_hot      Temp_cold        E_hot          E_cold       dTemp_step       Press         Enthalpy        TotEng         KinEng         PotEng    
     20000   20000          299.23329      344.18896      246.86622     -0             -0              97.322738      235.52947      57628.552      56463.9        28559.59       27904.31     
     21000   21000          300.29386      354.8747       259.74792     -180.74125      146.53199      95.126777      16.139496      56574.281      56494.474      28660.814      27833.66     
Loop time of 10.78 on 32 procs for 1000 steps with 32020 atoms

Performance: 8.015 ns/day, 2.994 hours/ns, 92.764 timesteps/s, 2.970 Matom-step/s
99.5% CPU use with 32 MPI tasks x 1 OpenMP threads

MPI task timing breakdown:
Section |  min time  |  avg time  |  max time  |%varavg| %total
---------------------------------------------------------------
Pair    | 6.7427     | 7.5303     | 8.6386     |  14.4 | 69.85
Bond    | 0.18999    | 0.20624    | 0.22444    |   2.2 |  1.91
Kspace  | 0.91911    | 2.0451     | 2.8571     |  28.2 | 18.97
Neigh   | 0.37398    | 0.37881    | 0.38218    |   0.4 |  3.51
Comm    | 0.27955    | 0.3691     | 0.43424    |   8.3 |  3.42
Output  | 0.00010104 | 0.00010783 | 0.00027379 |   0.0 |  0.00
Modify  | 0.17729    | 0.22338    | 0.27381    |   7.8 |  2.07
Other   |            | 0.027      |            |       |  0.25

Nlocal:        1000.62 ave        1049 max         942 min
Histogram: 4 0 1 3 3 5 8 2 3 3
Nghost:        11114.1 ave       11280 max       11014 min
Histogram: 3 8 3 5 3 5 1 2 1 1
Neighs:         542899 ave      590367 max      483104 min
Histogram: 2 1 1 3 7 4 5 4 3 2

Total # of neighbors = 17372770
Ave neighs/atom = 542.55996
Ave special neighs/atom = 11.48782
Neighbor list builds = 30
Dangerous builds = 0
WARNING: New thermo_style command, previous thermo_modify settings will be lost (src/output.cpp:904)
PPPM initialization ...
  using 12-bit tables for long-range coulomb (src/kspace.cpp:342)
  G vector (1/distance) = 0.23713698
  grid = 45 36 36
  stencil order = 5
  estimated absolute RMS force accuracy = 0.00028675184
  estimated relative force accuracy = 8.6354464e-07
  using double precision FFTW3
  3d grid and FFT values/proc = 7200 3240
Generated 10 of 10 mixed pair_coeff terms from arithmetic mixing rule
Setting up Verlet run ...
  Unit style    : real
  Current step  : 21000
  Time step     : 1
Per MPI rank memory allocation (min/avg/max) = 18.94 | 19.03 | 19.48 Mbytes
   Step          Time          kappa        kappa_inst      Temp_hot      Temp_cold      dTemp_step       dTemp           Temp          Press         Enthalpy        TotEng         KinEng         PotEng    
     21000   21000          0              0              355.51117      259.74792      95.763245      97.782499      300.29386      16.139496      56574.281      56494.474      28660.814      27833.66     
     22000   22000          0.1824568      0.17488381     356.86002      255.7583       101.10172      96.905431      300.54369     -56.524532      56271.176      56550.68       28684.658      27866.022    
     23000   23000          0.25563776     0.28878935     341.99751      255.57111      86.426403      97.634343      300.05015      73.759726      56920.93       56556.201      28637.553      27918.647    
     24000   24000          0.28480683     0.30369018     339.31051      248.66339      90.647125      96.657238      298.668       -482.95583      54106.826      56494.957      28505.638      27989.32     
     25000   25000          0.3257936      0.30646627     350.90539      247.28816      103.61724      97.470264      299.83643     -218.76969      55470.165      56551.943      28617.155      27934.788    
     26000   26000          0.31541543     0.34454337     349.16048      259.25739      89.903096      98.205454      300.29511      731.12766      60333.605      56718.307      28660.933      28057.375    
     27000   27000          0.29949541     0.31062863     344.09027      249.20451      94.885758      98.41297       297.32864     -296.78845      54883.091      56350.657      28377.806      27972.851    
     28000   28000          0.32123059     0.29423633     358.919        251.77692      107.14207      98.138507      299.56119     -856.70318      52210.392      56446.638      28590.886      27855.752    
     29000   29000          0.32061372     0.2965258      354.46482      248.54941      105.91541      97.957912      299.80608     -240.98997      55131.661      56323.314      28614.259      27709.056    
     30000   30000          0.31096753     0.32935077     341.3813       249.00792      92.373377      97.834148      298.38272     -451.66524      54198.927      56432.332      28478.41       27953.922    
     31000   31000          0.29582341     0.26150368     359.67298      249.29961      110.37338      97.568492      300.55694      93.068638      56883.322      56423.114      28685.923      27737.191    
     32000   32000          0.31286471     0.31138401     347.75308      249.59893      98.154155      97.689617      298.044        14.701972      56600.709      56528.01       28446.082      28081.929    
     33000   33000          0.30546115     0.28630414     347.27956      242.72298      104.55658      97.999308      300.30483     -466.06193      54343.489      56648.083      28661.861      27986.222    
     34000   34000          0.30492899     0.3309044      340.4657       250.21662      90.249086      97.936963      300.70657      100.2752       57023.886      56528.043      28700.204      27827.839    
     35000   35000          0.31636191     0.30233327     357.0968       254.45421      102.64259      98.091042      297.30616     -43.191285      56269.937      56483.51       28375.66       28107.85     
     36000   36000          0.30934622     0.32379486     349.3603       255.58793      93.772378      98.152205      300.34274     -276.47319      55010.096      56377.207      28665.479      27711.728    
     37000   37000          0.30892327     0.30896701     355.54498      257.48375      98.061234      98.075119      300.67942      705.53976      59890.203      56401.433      28697.613      27703.82     
     38000   38000          0.30619716     0.31490373     351.81769      256.50046      95.317234      98.027533      298.2894      -620.28182      53387.427      56454.611      28469.503      27985.108    
     39000   39000          0.30806121     0.31918122     347.10186      252.43602      94.665846      98.082974      299.93579      113.65417      56972.341      56410.341      28626.639      27783.703    
     40000   40000          0.30490155     0.39262477     334.46         258.40774      76.052258      97.933252      299.01864     -129.33738      55932.301      56571.851      28539.103      28032.748    
     41000   41000          0.30359586     0.29636384     348.36362      248.01622      100.34741      97.957013      300.19924     -467.78158      54179.824      56492.922      28651.783      27841.138    
     42000   42000          0.30737291     0.27823114     356.40782      248.21391      108.19391      97.936134      301.00856      221.00454      57630.046      56537.217      28729.026      27808.191    
     43000   43000          0.30160672     0.27849365     359.79371      253.71698      106.07673      97.947739      299.59411      34.273991      56685.569      56516.09       28594.027      27922.062    
     44000   44000          0.2997795      0.30832231     344.3135       249.27535      95.038145      97.746443      299.70016      478.5684       58845.611      56479.175      28604.149      27875.025    
     45000   45000          0.3027281      0.27823411     359.8095       253.47924      106.33026      97.726984      298.73925     -522.11469      53957.907      56539.673      28512.437      28027.235    
     46000   46000          0.29756454     0.34460906     345.26999      260.78515      84.484839      97.841769      298.55001      665.88273      59520.956      56228.283      28494.376      27733.907    
     47000   47000          0.2984666      0.27118243     358.57914      250.88951      107.68963      97.845236      299.44827      276.87754      57875.073      56505.963      28580.109      27925.854    
     48000   48000          0.29266113     0.30882556     348.48206      255.76398      92.71808       97.83914       297.14681     -170.50024      55531.506      56374.6        28360.452      28014.148    
     49000   49000          0.28699018     0.28538616     349.45242      251.05938      98.393042      97.843111      299.08061     -283.01105      55008.016      56407.456      28545.019      27862.438    
     50000   50000          0.28942823     0.27169627     359.8674       255.72821      104.13919      97.759056      299.40504     -358.01149      54536.126      56306.43       28575.983      27730.447    
     51000   51000          0.28686379     0.28634105     343.9026       245.99906      97.903533      97.725128      298.86374      400.01855      58344.542      56366.52       28524.32       27842.2      
     52000   52000          0.28428493     0.28281861     349.64165      251.3615       98.280146      97.773225      298.45636     -710.89434      52739.925      56255.173      28485.438      27769.735    
     53000   53000          0.28507232     0.25376199     358.73948      248.85694      109.88254      97.81382       299.02904      176.95922      57207.049      56332.017      28540.096      27791.921    
     54000   54000          0.28664035     0.2560387      349.51871      240.00811      109.51061      97.819284      297.05649      257.71155      57432.488      56158.149      28351.831      27806.319    
     55000   55000          0.27962779     0.25209272     362.37353      253.79175      108.58179      97.889691      299.42282      61.919218      56540.279      56234.099      28577.68       27656.42     
     56000   56000          0.28419337     0.26250219     355.63375      249.68766      105.94609      97.859713      299.04494     -689.09251      52797.815      56205.256      28541.614      27663.642    
     57000   57000          0.28049067     0.23522059     367.17204      250.38684      116.7852       97.936532      298.06865     -509.10506      53894.957      56412.392      28448.434      27963.958    
     58000   58000          0.27728212     0.29450069     344.99988      252.72957      92.270309      98.000082      298.3806       132.88965      57024.314      56367.198      28478.207      27888.991    
     59000   59000          0.2820011      0.24220095     354.23637      240.0408       114.19557      98.078608      297.97866      272.23784      57729.334      56383.166      28439.845      27943.321    
     60000   60000          0.27708127     0.27070545     351.17211      250.82174      100.35038      98.041252      298.95599     -328.33679      54726.157      56349.724      28533.124      27816.6      
     61000   61000          0.27404246     0.25866883     352.82339      248.91992      103.90348      98.074551      298.43315     -323.50797      54762.609      56362.299      28483.223      27879.076    
     62000   62000          0.27308043     0.27264443     345.55065      247.31699      98.23366       98.076818      298.07536     -119.2425       55513.654      56103.287      28449.074      27654.213    
     63000   63000          0.27408444     0.28802083     353.72247      260.40628      93.316183      98.061038      297.80465     -58.142645      55927.2        56214.706      28423.237      27791.469    
     64000   64000          0.27389997     0.3120663      338.22664      252.17627      86.050366      98.040972      297.39675     -43.258223      55755.706      55969.611      28384.306      27585.305    
     65000   65000          0.27295893     0.27178666     352.4608       254.00099      98.459805      98.036951      296.8571      -240.98599      54954.729      56146.362      28332.801      27813.561    
     66000   66000          0.27498442     0.25351936     357.02737      250.7146       106.31277      98.014082      298.21663      174.97091      57040.68       56175.479      28462.558      27712.921    
     67000   67000          0.27283003     0.26557505     353.50004      252.78139      100.71866      98.040388      298.57417      37.190832      56285.868      56101.966      28496.682      27605.284    
     68000   68000          0.26774902     0.34148853     337.20866      260.36521      76.843452      98.006549      297.51604      359.11524      57821.663      56045.901      28395.692      27650.209    
     69000   69000          0.271144       0.26208675     359.39641      258.11584      101.28057      97.897409      298.34924     -297.91747      54735.452      56208.601      28475.214      27733.387    
     70000   70000          0.27161386     0.27095271     347.51351      249.3023       98.21121       97.972149      297.96619      26.647823      56339.531      56207.762      28438.655      27769.107    
     71000   71000          0.271895       0.25599974     350.33818      246.21555      104.12263      98.035513      297.11633      140.55836      56843.401      56148.364      28357.542      27790.822    
     72000   72000          0.27555255     0.24933242     354.98528      246.5909       108.39438      98.080141      299.28597      436.89889      58361.77       56201.382      28564.618      27636.764    
     73000   73000          0.26912895     0.2564949      360.34769      257.39292      102.95477      98.12164       299.22149      70.789968      56437.466      56087.422      28558.464      27528.958    
     74000   74000          0.27124125     0.26667585     351.64382      251.88264      99.761182      98.08205       299.12702     -118.34518      55807.513      56392.709      28549.448      27843.261    
     75000   75000          0.26794186     0.29405769     338.65898      249.27612      89.382857      98.094849      296.60287     -637.56063      53107.179      56259.804      28308.536      27951.268    
     76000   76000          0.26773341     0.29933664     343.10938      255.3935       87.715887      98.069864      298.39487      528.26447      58968.55       56356.375      28479.569      27876.806    
     77000   77000          0.26791529     0.27747808     348.69078      253.99838      94.692398      98.072288      299.64022      153.76405      57069.306      56308.97       28598.428      27710.542    
     78000   78000          0.26847209     0.22942375     360.92762      246.20829      114.71933      98.033802      296.95693     -90.897929      55777.74       56227.215      28342.329      27884.886    
     79000   79000          0.26606997     0.27750574     342.78247      248.88488      93.897591      97.933341      298.09633     -208.80746      55110.918      56143.434      28451.076      27692.358    
     80000   80000          0.26872466     0.23840887     351.63615      241.23301      110.40314      97.948166      299.47224     -623.41152      53118.994      56201.654      28582.397      27619.258    
     81000   81000          0.26530788     0.24301346     367.23566      260.28516      106.95051      97.963216      301.7445       275.05062      57662.429      56302.352      28799.267      27503.086    
     82000   82000          0.2636543      0.26836589     355.20939      259.0298       96.179591      97.898353      300.01263     -304.36707      54855.693      56360.735      28633.973      27726.762    
     83000   83000          0.26536476     0.36664193     341.49102      270.66978      70.821236      97.85035       297.84036     -582.61611      53533.978      56414.913      28426.646      27988.267    
     84000   84000          0.26649454     0.29754668     341.28402      253.66173      87.62229       97.832105      298.67536      195.20107      57360.727      56395.492      28506.34       27889.152    
     85000   85000          0.26403137     0.25338811     349.51557      247.65156      101.86401      97.757815      296.43239     -427.9306       54112.865      56228.906      28292.266      27936.641    
     86000   86000          0.26385258     0.26329231     347.32581      249.33726      97.988545      97.780474      298.52134      125.27123      56876.698      56257.254      28491.64       27765.614    
     87000   87000          0.26383469     0.26894266     353.61159      257.73422      95.877365      97.733595      298.72633     -659.4853       53079.311      56340.35       28511.205      27829.145    
     88000   88000          0.26355855     0.27598797     350.34791      257.02229      93.325622      97.72686       299.77732     -377.58671      54483.572      56350.671      28611.514      27739.158    
     89000   89000          0.26270763     0.27595702     344.48217      251.47027      93.011904      97.702862      296.57529      232.37708      57324.145      56175.081      28305.904      27869.177    
     90000   90000          0.26302191     0.25973454     350.48304      251.63439      98.848658      97.613204      298.08112      219.52459      57343.87       56258.359      28449.624      27808.735    
     91000   91000          0.26278686     0.25975015     357.66479      258.91348      98.751317      97.610166      298.63599      292.27814      57775.102      56329.838      28502.583      27827.256    
     92000   92000          0.26297757     0.26784891     350.44683      254.6258       95.821026      97.595997      298.92434     -366.82054      54607.816      56421.679      28530.103      27891.576    
     93000   93000          0.26332026     0.25787356     347.9987       248.38681      99.61189       97.551448      299.74919      161.20963      57096.76       56299.606      28608.829      27690.777    
     94000   94000          0.26371983     0.24641179     358.52941      254.17696      104.35245      97.503758      300.2353      -122.73838      55967.519      56574.439      28655.225      27919.214    
     95000   95000          0.26315814     0.25965082     349.65705      250.8584       98.798653      97.481886      298.17895     -495.75452      53898.468      56349.887      28458.962      27890.925    
     96000   96000          0.26360943     0.26900954     346.62813      251.12276      95.505368      97.461818      298.46967      461.5625       58683.558      56401.213      28486.709      27914.504    
     97000   97000          0.26196064     0.28497719     344.26742      254.71838      89.549033      97.417045      298.61692      849.57878      60582.537      56381.52       28500.762      27880.758    
     98000   98000          0.26238957     0.27058862     356.32621      261.91188      94.414334      97.364554      300.12554      296.16481      57791.469      56326.986      28644.749      27682.237    
     99000   99000          0.26027468     0.29902013     332.25879      247.50575      84.753048      97.369701      297.65482      473.76036      58422.183      56079.521      28408.937      27670.584    
    100000   100000         0.26149464     0.25671747     356.07053      256.92629      99.144245      97.333009      298.32778      73.42227       56630.138      56267.078      28473.166      27793.912    
    101000   101000         0.2600362      0.23962279     361.88113      256.31196      105.56918      97.281765      297.33877     -413.19029      54241.125      56284.278      28378.772      27905.506    
    102000   102000         0.25897764     0.2912511      335.67926      249.18532      86.493943      97.272708      298.83134      333.46202      57860.937      56212.026      28521.227      27690.798    
    103000   103000         0.25944049     0.25515649     347.38225      248.47476      98.907486      97.274278      298.50202     -1.5816506      56143.109      56150.93       28489.796      27661.133    
    104000   104000         0.25907718     0.24678938     350.94865      248.85433      102.09432      97.252073      298.13837      193.16045      57153.053      56197.909      28455.088      27742.82     
    105000   105000         0.26111632     0.2815759      344.49894      254.31109      90.187852      97.254455      298.35877     -158.55215      55557.33       56341.343      28476.124      27865.219    
    106000   106000         0.25988184     0.30040659     336.40821      252.2903       84.117911      97.234861      297.76056     -298.19316      54814.24       56288.753      28419.029      27869.723    
    107000   107000         0.26124401     0.29363025     337.0284       250.50417      86.524222      97.250568      298.08518      259.4664       57421.88       56138.864      28450.011      27688.853    
    108000   108000         0.26216114     0.25328529     355.13755      254.41874      100.71881      97.308825      298.71415      134.47224      56971.085      56306.143      28510.042      27796.101    
    109000   109000         0.26211296     0.24118839     361.81905      256.03043      105.78862      97.343478      297.96369     -270.51562      54855.893      56193.545      28438.416      27755.129    
    110000   110000         0.26202495     0.28625631     339.81059      250.69081      89.119777      97.361333      296.19261     -174.80338      55415.978      56280.35       28269.38       28010.969    
    111000   111000         0.26134171     0.24712256     353.64941      250.64328      103.00613      97.401747      299.4528      -312.04499      54777.973      56320.98       28580.541      27740.439    
    112000   112000         0.26370306     0.23806575     353.12146      245.23225      107.88921      97.400179      297.62268     -295.98179      54642.228      56105.806      28405.87       27699.937    
    113000   113000         0.2633664      0.26777797     338.17009      242.33685      95.833242      97.438515      298.29681      57.008242      56288.152      56006.256      28470.21       27536.046    
    114000   114000         0.26045449     0.31321755     337.35455      256.28311      81.071441      97.494953      295.32402      406.0465       57957.078      55949.25       28186.479      27762.77     
    115000   115000         0.263679       0.25798576     355.24816      255.58034      99.667824      97.51584       297.80457     -323.33108      54772.514      56371.329      28423.23       27948.1      
    116000   116000         0.2599476      0.3017463      330.02855      246.00515      84.023394      97.534074      296.92181     -9.9655994      55976.575      56025.853      28338.977      27686.877    
    117000   117000         0.26266831     0.27337914     346.10197      252.38008      93.721884      97.54358       295.8055       24.923157      56231.729      56108.489      28232.433      27876.056    
    118000   118000         0.26172871     0.2339124      351.91728      242.76291      109.15436      97.553528      295.21699     -182.82424      55051.433      55955.467      28176.264      27779.203    
    119000   119000         0.26130058     0.32897573     339.65285      262.17946      77.473386      97.538491      296.84575     -6.261332       55997.5        56028.461      28331.718      27696.743    
    120000   120000         0.26284986     0.24809103     354.0592       250.69599      103.36321      97.559442      298.16752      26.598564      56404.087      56272.562      28457.87       27814.692    
    121000   121000         0.26125082     0.27243582     349.57403      256.00758      93.566457      97.572345      300.03747     -449.67616      54080.333      56303.902      28636.343      27667.559    
    122000   122000         0.26070836     0.24717583     346.04443      243.11749      102.92694      97.584334      298.29327     -307.08243      54595.757      56114.226      28469.872      27644.354    
    123000   123000         0.26144712     0.24062511     359.42792      253.36098      106.06693      97.619612      298.66476      441.12858      58751.706      56570.402      28505.328      28065.074    
    124000   124000         0.25998636     0.25086868     354.51323      253.33997      101.17326      97.625129      298.53715     -409.38411      54371.196      56395.528      28493.149      27902.38     
    125000   125000         0.25873916     0.25319923     344.04959      244.34033      99.709258      97.574358      296.63293      275.52775      57487.014      56124.578      28311.405      27813.173    
    126000   126000         0.25870797     0.27707586     346.39903      255.26687      91.132166      97.602419      299.01573     -62.145475      55811.295      56118.593      28538.826      27579.767    
    127000   127000         0.25927383     0.26727174     345.53163      250.81627      94.715354      97.637072      297.20517     -46.180823      55912.327      56140.683      28366.022      27774.661    
    128000   128000         0.25942452     0.23873257     352.44448      246.35207      106.09241      97.630379      297.83408      399.03247      58161.795      56188.65       28426.046      27762.603    
    129000   129000         0.258663       0.30028802     337.1723       253.07894      84.093363      97.625982      297.07764     -512.44716      53780.152      56314.113      28353.85       27960.264    
    130000   130000         0.2595244      0.30409656     337.4073       254.09128      83.316021      97.625179      298.37639      185.86212      57195.183      56276.128      28477.806      27798.322    
    131000   131000         0.25992492     0.25836471     350.49644      252.29907      98.197371      97.607934      299.46284     -491.46496      53818.089      56248.296      28581.499      27666.797    
    132000   132000         0.26036087     0.27481029     349.59065      257.10058      92.490068      97.623049      299.11217     -395.51206      54515.512      56471.249      28548.031      27923.219    
    133000   133000         0.26058379     0.27749521     343.53994      251.84503      91.69491       97.645744      299.2878       85.261248      56946.194      56524.593      28564.793      27959.799    
    134000   134000         0.26039227     0.26670857     349.21285      253.84339      95.369462      97.682827      299.46678     -246.73963      55207.084      56427.168      28581.875      27845.293    
    135000   135000         0.2588889      0.27009081     343.5932       249.96225      93.630951      97.682285      297.83272      153.37667      57139.394      56380.973      28425.917      27955.056    
    136000   136000         0.25996689     0.25438167     348.39117      248.5557       99.835471      97.690572      298.31684     -515.40255      53846.598      56395.173      28472.122      27923.051    
    137000   137000         0.26052442     0.21546211     365.55007      247.42307      118.127        97.694845      299.12484     -71.919421      55939.715      56295.344      28549.24       27746.105    
    138000   138000         0.25872664     0.28103039     345.91218      255.94675      89.965433      97.720979      299.43996     -316.60719      54791.246      56356.812      28579.315      27777.497    
    139000   139000         0.25826117     0.24521507     348.47479      245.54071      102.93408      97.734345      297.68681      124.12563      56761.168      56147.389      28411.991      27735.398    
    140000   140000         0.25728865     0.2548359      351.30125      252.64304      98.658209      97.717694      297.54544      114.99853      56888.7        56320.052      28398.498      27921.554    
    141000   141000         0.25777996     0.30002365     334.85009      250.89716      83.952923      97.710709      296.46953      468.66355      58627.564      56310.105      28295.81       28014.295    
    142000   142000         0.25715466     0.27672797     349.70876      258.93094      90.777824      97.687372      298.44353      345.76331      58044.777      56335.039      28484.214      27850.825    
    143000   143000         0.25707837     0.27674332     344.8877       254.14417      90.743525      97.684861      299.17658     -126.86609      55593.033      56220.363      28554.177      27666.186    
    144000   144000         0.25583633     0.29442434     343.15118      258.28442      84.866755      97.667277      299.0078       478.50021      58505.258      56139.158      28538.069      27601.089    
    145000   145000         0.25661108     0.26930147     343.99784      250.96045      93.037388      97.638443      296.9567       75.12214       56490.49       56119.024      28342.307      27776.717    
    146000   146000         0.25863468     0.26268091     346.83239      250.73247      96.099922      97.603365      297.00783     -137.59993      55579.897      56260.305      28347.187      27913.118    
    147000   147000         0.25875205     0.25757602     344.64561      246.59578      98.04983       97.60419       296.75352      559.9533       58955.473      56186.602      28322.915      27863.687    
    148000   148000         0.25793874     0.23977193     355.42586      250.39872      105.02715      97.630013      298.52177     -341.22881      54597.251      56284.567      28491.681      27792.886    
    149000   149000         0.25841683     0.24711363     353.05963      250.94146      102.11818      97.65151       300.20902      427.12509      58447.711      56335.653      28652.717      27682.936    
    150000   150000         0.25855268     0.2580816      350.13461      252.29005      97.844552      97.666282      299.60375      418.03945      58396.988      56329.856      28594.948      27734.908    
    151000   151000         0.25845838     0.28272399     342.01486      252.74843      89.266432      97.647299      298.3416       44.717343      56582.78       56361.661      28474.485      27887.175    
    152000   152000         0.25921203     0.24918624     358.86037      257.27918      101.58118      97.65223       300.89573      152.69566      57232.526      56477.473      28718.258      27759.215    
    153000   153000         0.2579229      0.27233519     337.13032      244.64512      92.485201      97.653112      298.65581      303.78327      57763.117      56260.962      28504.474      27756.487    
    154000   154000         0.25850553     0.26170093     347.87723      251.41595      96.461278      97.653638      300.46258      75.079255      56708.352      56337.098      28676.917      27660.181    
    155000   155000         0.2587676      0.24276753     353.20966      249.12217      104.08749      97.651571      300.42936     -64.195637      55987.566      56305.002      28673.747      27631.255    
    156000   156000         0.25883952     0.26246057     344.81238      248.49325      96.319129      97.666591      299.50154     -117.443        55835.303      56416.038      28585.193      27830.846    
    157000   157000         0.2578868      0.27635395     346.43487      255.31024      91.124628      97.650019      301.38585      37.01837       56717.596      56534.547      28765.036      27769.511    
    158000   158000         0.25924132     0.27470649     344.98738      252.83562      92.151761      97.649121      299.58054     -218.94486      55538.219      56620.863      28592.733      28028.13     
    159000   159000         0.25901175     0.26258699     351.11615      254.82612      96.290032      97.619159      298.78858      12.562061      56642.783      56580.666      28517.146      28063.52     
    160000   160000         0.25982658     0.29501106     341.99096      256.04334      85.947626      97.586243      300.81085      360.54581      58211.2        56428.364      28710.157      27718.207    
    161000   161000         0.25876664     0.25736401     353.05187      254.93606      98.115811      97.583979      299.77966     -697.439        53099.462      56548.176      28611.737      27936.438    
    162000   162000         0.25949711     0.25595333     355.23151      256.3287       98.902815      97.552166      300.12798      461.58232      58835.232      56552.789      28644.981      27907.807    
    163000   163000         0.26030533     0.26656067     341.23629      245.953        95.283294      97.573024      299.92852      602.62384      59268.568      56288.699      28625.945      27662.754    
    164000   164000         0.26044621     0.27230939     348.89435      255.57996      93.314391      97.564808      300.75962      229.91369      57613.388      56476.505      28705.267      27771.238    
    165000   165000         0.25954817     0.22885373     357.72256      247.05648      110.66608      97.578593      300.45705      122.10236      57110.787      56507.012      28676.39       27830.622    
    166000   166000         0.26150169     0.26957883     341.08734      246.43681      94.650533      97.574054      298.4616      -31.674258      56422.108      56578.731      28485.938      28092.793    
    167000   167000         0.26028199     0.26008492     349.51808      251.83491      97.683174      97.609215      300.06342     -116.20468      56011.719      56586.33       28638.82       27947.51     
    168000   168000         0.26093397     0.26715311     349.33871      254.01043      95.328282      97.600352      298.7752      -592.59667      53704.788      56635.075      28515.869      28119.206    
    169000   169000         0.25975356     0.22269057     363.2944       249.42532      113.86908      97.621647      298.82562     -535.63906      53762.239      56410.88       28520.681      27890.198    
    170000   170000         0.25999282     0.26510486     346.82222      251.097        95.725226      97.607398      300.74582     -282.4965       55096.228      56493.124      28703.95       27789.174    
    171000   171000         0.2597767      0.28626015     346.90078      258.30173      88.599049      97.631455      300.10829     -490.7031       54218.6        56645.04       28643.102      28001.938    
    172000   172000         0.26174614     0.24562084     349.82252      245.77694      104.04558      97.635678      299.95479     -407.91642      54636.774      56653.849      28628.452      28025.397    
    173000   173000         0.26050962     0.24031773     351.25537      245.4058       105.84958      97.645262      300.5758      -521.04662      53999.778      56576.262      28687.723      27888.54     
    174000   174000         0.26008248     0.26604016     347.84821      252.37055      95.477665      97.664764      300.88202      189.03659      57427.74       56492.987      28716.949      27776.038    
    175000   175000         0.26004313     0.24498917     354.11478      250.45941      103.65537      97.65474       298.81296      7.8305527      56448.606      56409.885      28519.473      27890.412    
    176000   176000         0.25947025     0.26454795     355.37211      259.6126       95.759513      97.633477      299.41137      563.18946      59246.184      56461.311      28576.587      27884.724    
    177000   177000         0.26130308     0.25903344     347.63374      249.13861      98.495129      97.639614      299.07809     -143.9839       55901.451      56613.427      28544.778      28068.649    
    178000   178000         0.25975788     0.2503636      351.5507       250.22382      101.32688      97.662344      300.83758     -138.02017      55955.519      56638.004      28712.708      27925.297    
    179000   179000         0.25790372     0.25998403     348.07379      251.19626      96.877531      97.658964      299.5279       451.30507      58702.137      56470.513      28587.708      27882.804    
    180000   180000         0.25875908     0.24950753     352.80132      251.51059      101.29073      97.66923       299.24383      275.1434       57987.416      56626.88       28560.596      28066.284    
    181000   181000         0.25915316     0.29203948     341.86598      255.19902      86.666956      97.664921      297.2233      -225.18028      55206.644      56320.121      28367.752      27952.369    
    182000   182000         0.26002104     0.25460125     355.9724       256.23076      99.741636      97.662653      298.50902      274.76588      57798.282      56439.613      28490.464      27949.15     
    183000   183000         0.2597764      0.25587003     360.81055      261.64593      99.164615      97.673434      301.53479     -15.440302      56435.552      56511.902      28779.251      27732.651    
    184000   184000         0.2611547      0.22935889     359.07046      247.87161      111.19885      97.660295      298.12595      199.95659      57387.311      56398.561      28453.903      27944.659    
    185000   185000         0.26028136     0.26081302     351.3128       253.83397      97.478838      97.677952      299.37941     -85.580445      55953.856      56377.037      28573.536      27803.5      
    186000   186000         0.25980869     0.23602133     360.82463      253.27729      107.54734      97.700605      299.88312      23.993238      56611.211      56492.568      28621.612      27870.957    
    187000   187000         0.25905345     0.25515503     351.75507      252.55447      99.200601      97.70776       300.00935     -104.27858      55830.701      56346.34       28633.659      27712.681    
    188000   188000         0.25844661     0.24511405     350.24793      247.21755      103.03038      97.715322      300.09744      159.45318      57262.215      56473.747      28642.067      27831.68     
    189000   189000         0.25780319     0.24662662     350.33947      248.23057      102.1089       97.682157      297.86785      550.58022      59050.785      56328.262      28429.269      27898.993    
    190000   190000         0.25835369     0.26593561     336.3101       241.43714      94.872953      97.657195      296.61441     -744.29299      52395.799      56076.197      28309.638      27766.559    
    191000   191000         0.25872501     0.24297591     356.68987      252.70898      103.98089      97.65137       299.11264     -6.8890823      56312.695      56346.76       28548.076      27798.684    
    192000   192000         0.25786872     0.24207173     352.58415      248.54178      104.04237      97.668755      298.26678     -65.210804      55926.277      56248.733      28467.344      27781.389    
    193000   193000         0.25779265     0.27783631     337.61509      247.00942      90.605668      97.650355      297.89494     -65.289543      55747.486      56070.331      28431.855      27638.476    
    194000   194000         0.25854474     0.25937159     354.50974      257.16569      97.344056      97.65537       300.44464      354.25279      58272.025      56520.307      28675.205      27845.102    
    195000   195000         0.25836988     0.23672027     358.1251       251.5306       106.59449      97.662613      299.93731     -326.60024      54767.63       56382.611      28626.784      27755.827    
    196000   196000         0.25679803     0.27353674     337.00998      245.31875      91.691231      97.667885      298.99073     -142.90967      55476.314      56182.978      28536.44       27646.538    
    197000   197000         0.25750927     0.21764136     360.7333       245.17693      115.55637      97.665787      297.60614      634.12073      59483.387      56347.772      28404.291      27943.48     
    198000   198000         0.25786845     0.25995521     344.94262      248.06167      96.880942      97.664935      298.96654      582.06181      59098.521      56220.328      28534.131      27686.198    
    199000   199000         0.25752426     0.26242753     349.46091      253.62351      95.837404      97.662152      296.70375      157.34489      57011.626      56233.583      28318.165      27915.418    
    200000   200000         0.25821909     0.28292976     344.84755      255.74658      89.100969      97.627622      298.94352     -90.423123      55904.737      56351.863      28531.934      27819.929    
    201000   201000         0.25892837     0.24462949     354.70528      251.35972      103.34556      97.638474      299.08709      924.18198      60889.264      56319.347      28545.636      27773.711    
    202000   202000         0.25781041     0.27807119     344.05047      253.52038      90.53009       97.644662      299.71784      907.16848      60745.326      56259.537      28605.837      27653.701    
    203000   203000         0.25822957     0.2614536      340.59362      244.16208      96.431544      97.635504      297.41886      261.08461      57411.987      56120.97       28386.416      27734.553    
    204000   204000         0.25830649     0.26814481     342.81294      248.74918      94.063759      97.646441      297.37454     -363.03618      54462.859      56258.009      28382.186      27875.822    
    205000   205000         0.2580196      0.24473238     359.02653      256.05099      102.97554      97.672613      300.6371      -10.62939       56292.948      56345.509      28693.574      27651.935    
    206000   206000         0.25782892     0.24468194     350.88555      247.98111      102.90444      97.657231      298.40809      460.25019      58573.846      56297.989      28480.831      27817.158    
    207000   207000         0.25729754     0.27970983     345.55863      255.7167       89.841933      97.66775       300.46707     -669.33624      53224.352      56534.102      28677.346      27856.756    
    208000   208000         0.25732431     0.24490234     347.97074      245.33404      102.6367       97.682055      299.23261      563.02803      59256.59       56472.515      28559.526      27912.99     
    209000   209000         0.25711191     0.27359011     348.55753      256.76047      91.797061      97.680296      301.30789      182.80393      57437.828      56533.895      28757.596      27776.299    
    210000   210000         0.25677468     0.26558278     342.33026      247.87765      94.452613      97.692605      297.22478     -137.11794      55508.122      56186.146      28367.893      27818.253    
    211000   211000         0.25678344     0.28224617     346.25958      257.39448      88.865096      97.676991      299.25616     -85.345156      55860.142      56282.159      28561.773      27720.386    
    212000   212000         0.25620336     0.29200092     338.02285      252.33388      85.688973      97.661712      297.132       -510.68551      53584.884      56110.134      28359.038      27751.096    
    213000   213000         0.25796776     0.28152152     346.39789      256.89177      89.506124      97.678482      298.78795      46.039342      56693.483      56465.826      28517.086      27948.74     
    214000   214000         0.25760664     0.24148931     354.5636       250.36524      104.19836      97.679116      298.98605     -351.67793      54646.88       56385.866      28535.993      27849.873    
    215000   215000         0.25739087     0.28808083     342.0607       254.77474      87.285955      97.693482      299.23414     -2.6432862      56391.252      56404.323      28559.671      27844.652    
    216000   216000         0.25756509     0.2782107      342.05243      251.62086      90.43157       97.680282      297.02462     -25.666303      56088.254      56215.169      28348.789      27866.38     
    217000   217000         0.25772117     0.22962004     360.18742      250.53846      109.64896      97.693174      299.75433      113.31455      57025.93       56465.61       28609.319      27856.291    
    218000   218000         0.25690945     0.25857248     350.91612      253.84925      97.066871      97.695208      298.82097     -302.12659      54757.45       56251.412      28520.238      27731.175    
    219000   219000         0.25619346     0.22326081     362.72193      250.61461      112.10731      97.696365      296.67096      1126.1407      61532.744      55964.176      28315.035      27649.141    
    220000   220000         0.25596271     0.24656083     354.27471      252.83778      101.43694      97.711011      297.95289      259.46893      57356.184      56073.156      28437.386      27635.77     
    221000   221000         0.25649982     0.29022696     336.24499      249.88466      86.360328      97.715841      295.23521      157.89138      56738.322      55957.577      28178.003      27779.573    
    222000   222000         0.25584692     0.29351207     348.07251      262.90188      85.170627      97.709237      296.594       -595.42881      53050.978      55995.268      28307.69       27687.579    
    223000   223000         0.25589223     0.25577663     355.40516      257.66191      97.743246      97.699091      296.58839      195.66067      56998.84       56031.332      28307.155      27724.178    
    224000   224000         0.25548597     0.25136278     352.50457      253.20096      99.30361       97.700987      296.71427      108.37046      56613.614      56077.742      28319.169      27758.573    
    225000   225000         0.25720915     0.25649798     353.1592       255.18178      97.977425      97.706525      298.87953      471.28683      58593.673      56263.243      28525.826      27737.416    
    226000   226000         0.25653235     0.21915075     360.2432       245.83877      114.40443      97.733545      297.80447     -484.2203       53647.689      56042.073      28423.22       27618.853    
    227000   227000         0.25627075     0.26916562     347.52624      254.47809      93.048145      97.730085      297.23979      188.82678      57048.248      56114.533      28369.326      27745.207    
    228000   228000         0.25649806     0.27258784     341.85472      249.89483      91.95989       97.728413      297.40411     -131.98975      55521.635      56174.301      28385.009      27789.292    
    229000   229000         0.2570015      0.25300375     354.13495      254.85657      99.27838       97.734069      297.27334      182.25111      57071.78       56170.58       28372.528      27798.052    
    230000   230000         0.25607727     0.30206174     338.95217      256.10316      82.84901       97.726424      298.65138     -622.93091      53070.44       56150.724      28504.051      27646.673    
    231000   231000         0.25715867     0.26865215     345.65506      252.14906      93.506003      97.685174      299.92052      53.360331      56653.649      56389.792      28625.182      27764.61     
    232000   232000         0.25761497     0.27632476     349.35744      258.27735      91.080095      97.694965      297.28638     -534.39666      53498.199      56140.696      28373.772      27766.924    
    233000   233000         0.25767351     0.25326228     345.21857      245.816        99.402563      97.700843      297.14508      994.36204      61059.392      56142.446      28360.287      27782.16     
    234000   234000         0.25780509     0.28630847     342.47685      254.51382      87.963032      97.688381      297.59628     -28.926841      56006.66       56149.698      28403.35       27746.348    
    235000   235000         0.25783015     0.24527495     349.42467      246.75189      102.67277      97.67306       296.94117     -250.36995      54811.699      56049.734      28340.824      27708.91     
    236000   236000         0.25675985     0.24396079     352.48916      249.68865      102.80052      97.676079      299.72396     -66.946189      55826.953      56157.99       28606.421      27551.569    
    237000   237000         0.25651424     0.28668725     344.2518       256.84589      87.405905      97.687204      296.96755      344.8971       57917.572      56212.116      28343.342      27868.774    
    238000   238000         0.25584502     0.25038203     346.85855      247.04983      99.808721      97.677531      296.06508      67.863949      56332.858      55997.282      28257.208      27740.074    
    239000   239000         0.25626649     0.25972253     352.16115      255.79603      96.365118      97.66471       296.3309       444.33429      58211.215      56014.06       28282.579      27731.481    
    240000   240000         0.25526129     0.28504447     336.70568      249.24056      87.465123      97.670313      297.74814      526.69995      58577.09       55972.652      28417.844      27554.808    
    241000   241000         0.25600266     0.30002966     334.49644      251.15112      83.345313      97.67893       297.608       -313.77565      54526.337      56077.902      28404.469      27673.433    
    242000   242000         0.25578374     0.27920811     343.69713      254.20246      89.494664      97.690479      298.34005     -1.1101263      56144.366      56149.856      28474.337      27675.518    
    243000   243000         0.2560537      0.25504486     346.96539      248.88756      98.077832      97.691411      298.34412     -103.88369      55589.348      56103.035      28474.726      27628.309    
    244000   244000         0.2550376      0.24869036     348.09413      247.92553      100.16859      97.675651      295.54639     -398.75761      54128.265      56100.051      28207.703      27892.348    
    245000   245000         0.25617616     0.24125114     348.85657      245.12282      103.73375      97.690141      295.1232      -418.16864      53884.855      55952.625      28167.313      27785.312    
    246000   246000         0.25537291     0.24779846     357.46238      256.77903      100.68335      97.697043      297.67616     -120.13983      55398.449      55992.519      28410.974      27581.545    
    247000   247000         0.255551       0.26657038     349.29094      255.6337       93.657236      97.695743      297.31662     -590.41504      52986.693      55906.191      28376.659      27529.533    
    248000   248000         0.25525844     0.23798014     353.67674      248.88625      104.79049      97.69728       295.9927      -708.11501      52442.487      55943.991      28250.3        27693.691    
    249000   249000         0.25490012     0.25319749     356.09518      257.76101      98.334172      97.677339      297.98689      79.404616      56634.675      56242.033      28440.63       27801.402    
    250000   250000         0.25523914     0.2534583      352.90815      254.56127      98.346875      97.660694      297.40214      255.32206      57290.995      56028.472      28384.821      27643.652    
    251000   251000         0.25571578     0.22380393     359.1329       247.54966      111.58323      97.658288      296.12351     -81.152149      55650.003      56051.286      28262.785      27788.501    
    252000   252000         0.25489008     0.32696798     343.66425      267.53703      76.127214      97.654492      296.96546      121.24718      56619.057      56019.511      28343.143      27676.368    
    253000   253000         0.25557648     0.27018338     349.88626      257.52119      92.365075      97.643997      297.51169      230.46032      57155.812      56016.226      28395.277      27620.95     
    254000   254000         0.25527388     0.2410605      352.60345      249.20704      103.39641      97.639405      297.31952      200.59895      56931.219      55939.293      28376.935      27562.358    
    255000   255000         0.25532534     0.24724496     354.51187      253.69164      100.82023      97.629535      297.02772      68.096235      56443.693      56106.97       28349.085      27757.884    
    256000   256000         0.25605967     0.25534909     350.38406      252.48766      97.896404      97.624735      297.25742      73.618266      56422.073      56058.044      28371.008      27687.036    
    257000   257000         0.25604229     0.25677233     354.19028      256.85433      97.335947      97.613477      298.13638      198.63868      56857.346      55875.113      28454.898      27420.214    
    258000   258000         0.25651339     0.25139537     348.99148      249.39514      99.596344      97.609173      296.83447      15.970881      56142.995      56064.021      28330.641      27733.381    
    259000   259000         0.25752516     0.23169915     357.74087      249.23134      108.50953      97.627615      298.72549     -344.36507      54477.716      56180.541      28511.125      27669.416    
    260000   260000         0.25677253     0.22996237     353.06214      244.02574      109.0364       97.651682      294.95802      486.32431      58401.962      55997.174      28151.548      27845.626    
    261000   261000         0.25668667     0.2519879      356.24743      256.774        99.473423      97.652515      295.7513       376.55761      57952.781      56090.769      28227.26       27863.509    
    262000   262000         0.25635235     0.27074506     345.66434      253.21225      92.452091      97.642745      296.79205      34.689245      55998.744      55827.212      28326.593      27500.619    
    263000   263000         0.25585569     0.26871462     347.01468      254.05142      92.963257      97.635454      296.39677     -121.77676      55282.784      55884.949      28288.865      27596.084    
    264000   264000         0.25569383     0.29493184     334.75635      250.12089      84.63546       97.623365      297.94436     -258.60811      54527.379      55806.15       28436.572      27369.578    
    265000   265000         0.25619942     0.23345523     358.70028      251.57059      107.12969      97.619214      298.32788     -75.288043      55720.002      56092.289      28473.175      27619.113    
    266000   266000         0.25624551     0.23130912     356.55717      248.42005      108.13712      97.613819      296.39331      159.30208      56714.122      55926.401      28288.536      27637.865    
    267000   267000         0.25692662     0.22354942     362.3945       250.20058      112.19392      97.618867      296.66298      67.371448      56289.955      55956.815      28314.274      27642.542    
    268000   268000         0.25551349     0.34597199     329.53453      257.44556      72.088969      97.61036       295.61789      34.012141      55834.191      55666.007      28214.527      27451.479    
    269000   269000         0.25615312     0.24367349     358.14954      255.58035      102.56919      97.572081      297.05999      124.23677      56459.407      55845.078      28352.165      27492.913    
    270000   270000         0.25682937     0.26392368     346.41874      251.4665       94.952247      97.575079      295.23643      43.970582      56086.707      55869.281      28178.12       27691.161    
    271000   271000         0.25691334     0.26418716     347.06668      252.18343      94.883246      97.569615      298.19638     -211.84677      55058.7        56106.245      28460.625      27645.62     
    272000   272000         0.25721687     0.27975811     343.71717      253.99382      89.723355      97.586274      295.55757     -105.06465      55260.813      55780.34       28208.77       27571.569    
    273000   273000         0.25749875     0.2521685      347.87418      248.21308      99.661108      97.598112      296.85139     -608.26602      52856.09       55863.858      28332.255      27531.603    
    274000   274000         0.25677319     0.27889109     344.30081      254.42872      89.872089      97.613479      295.88387      253.96188      57179.76       55923.963      28239.913      27684.05     
    275000   275000         0.25618553     0.25689286     341.66836      244.33372      97.334642      97.603384      295.05628     -310.25096      54283.694      55817.831      28160.926      27656.904    
    276000   276000         0.25629253     0.25329927     338.18551      239.43083      98.754677      97.601314      296.0783       188.64853      56906.888      55974.054      28258.47       27715.585    
    277000   277000         0.25592338     0.27614502     340.49607      250.05034      90.445731      97.59225       296.24811     -114.84622      55371.33       55939.224      28274.677      27664.547    
    278000   278000         0.25686746     0.22819185     352.36566      242.48546      109.8802       97.613634      297.06295      340.30314      57635.265      55952.526      28352.448      27600.078    
    279000   279000         0.25637592     0.2321307      351.52333      243.70148      107.82185      97.625241      295.79997      341.49655      57716.125      56027.484      28231.905      27795.579    
    280000   280000         0.25600586     0.25089017     352.63718      253.01926      99.617923      97.627286      298.19447      319.58591      57738.95       56158.654      28460.443      27698.211    
    281000   281000         0.25647034     0.23966419     358.95928      254.48958      104.4697       97.623942      299.26959      203.00146      57069.854      56066.047      28563.055      27502.992    
    282000   282000         0.2560089      0.24703289     344.75423      243.58244      101.1718       97.624581      297.51671     -401.5307       53938.395      55923.893      28395.755      27528.138    
    283000   283000         0.25591665     0.26331439     341.90982      247.04953      94.860285      97.602396      295.51171     -5.697126       55979.775      56007.946      28204.393      27803.553    
    284000   284000         0.25678583     0.24109193     357.88425      253.93804      103.94621      97.593365      300.28024      777.38796      60129.543      56285.497      28659.514      27625.983    
    285000   285000         0.25585567     0.29889739     341.43456      257.8856       83.548954      97.604108      298.44406      453.76719      58416.857      56173.059      28484.264      27688.794    
    286000   286000         0.25591629     0.25678297     348.66753      251.38009      97.287444      97.616913      297.10816     -260.79954      54918.493      56208.101      28356.762      27851.339    
    287000   287000         0.2562395      0.24407568     360.61808      258.12394      102.49414      97.628688      299.63196     -33.702101      56214.401      56381.052      28597.64       27783.412    
    288000   288000         0.2562682      0.24678365     356.10642      254.71927      101.38715      97.634786      297.54291      117.73593      56853.426      56271.243      28398.256      27872.986    
    289000   289000         0.25519294     0.33334488     328.81377      254.06801      74.745758      97.636384      296.81014     -651.74518      52819.29       56042.056      28328.319      27713.737    
    290000   290000         0.25542392     0.22470361     353.74114      242.76958      110.97156      97.624804      298.42107      254.77313      57534.85       56275.041      28482.07       27792.971    
    291000   291000         0.25578116     0.25490823     346.47374      248.51757      97.956166      97.621862      298.23892     -479.95781      53863.326      56236.633      28464.685      27771.948    
    292000   292000         0.2560832      0.2687725      343.35637      250.34226      93.01411       97.623095      295.87116      176.96033      57164.615      56289.578      28238.7        28050.877    
    293000   293000         0.25588153     0.28046595     344.90093      255.84265      89.058279      97.614763      298.12828     -103.85217      55815.328      56328.858      28454.125      27874.733    
    294000   294000         0.25668426     0.26325611     350.00104      254.81442      95.186622      97.623673      298.53064      26.834892      56559.513      56426.82       28492.527      27934.292    
    295000   295000         0.25622509     0.23719397     351.12547      245.6607       105.46477      97.63137       300.97091     -209.34061      55240.61       56275.763      28725.434      27550.329    
    296000   296000         0.25584682     0.28589337     345.35281      257.97092      87.381888      97.643981      298.88335      44.645532      56687.958      56467.194      28526.191      27941.003    
    297000   297000         0.25575879     0.26494087     347.46959      253.20838      94.26121       97.645311      298.86427     -113.67451      55729.4        56291.5        28524.37       27767.13     
    298000   298000         0.25617726     0.25017193     355.0098       255.01726      99.992546      97.648514      300.42156      307.20194      57925.223      56406.163      28673.001      27733.162    
    299000   299000         0.25529799     0.27537041     347.52531      257.00674      90.518569      97.635453      297.34592      679.79297      59478.045      56116.588      28379.455      27737.133    
    300000   300000         0.25676035     0.25751834     354.23328      256.89038      97.342901      97.630271      300.14933     -275.01106      54963.844      56323.725      28647.019      27676.706    
    301000   301000         0.25678944     0.26736189     351.10875      257.33023      93.778524      97.639544      297.38608     -89.027184      55888.183      56328.407      28383.288      27945.119    
    302000   302000         0.2571148      0.24014112     360.3146       255.77088      104.54371      97.642159      298.33945      296.07145      57808.574      56344.553      28474.28       27870.273    
    303000   303000         0.25651829     0.24847792     354.84458      254.03165      100.81294      97.653032      297.58817     -50.920179      55862.326      56114.118      28402.576      27711.542    
    304000   304000         0.2569743      0.30885731     335.97852      254.74048      81.23804       97.639967      297.70906      52.116795      56450.966      56193.258      28414.114      27779.144    
    305000   305000         0.2580923      0.23517783     350.8722       243.73794      107.13426      97.622448      297.56335     -97.111604      55646.922      56127.122      28400.207      27726.915    
    306000   306000         0.25762634     0.23408996     356.73704      249.27876      107.45827      97.641038      297.25774     -626.06294      53028.712      56124.483      28371.039      27753.445    
    307000   307000         0.25732022     0.24690556     349.84166      248.07923      101.76243      97.643747      296.94914     -296.65368      54805.341      56272.242      28341.585      27930.657    
    308000   308000         0.25735483     0.25532822     345.2813       246.86664      98.414661      97.639669      298.17688     -233.64171      55051.851      56207.168      28458.764      27748.404    
    309000   309000         0.25818748     0.2644831      347.55692      252.23476      95.322156      97.646485      296.95057     -50.83666       55963.719      56215.098      28341.722      27873.376    
    310000   310000         0.25766785     0.26209463     350.16735      254.1796       95.987755      97.636844      298.21228     -85.159503      55807.326      56228.425      28462.142      27766.283    
    311000   311000         0.25773478     0.2545383      343.65185      244.7823       98.869555      97.643352      297.32207      789.69712      60087.13       56182.217      28377.178      27805.038    
    312000   312000         0.25716748     0.23755572     360.17989      254.46969      105.7102       97.648675      299.59146     -337.78963      54404.47       56074.78       28593.775      27481.005    
    313000   313000         0.25712112     0.24790148     352.61237      251.34283      101.26954      97.638298      296.28451     -96.89228       55490.385      55969.501      28278.152      27691.349    
    314000   314000         0.25783853     0.22220466     358.25177      244.97453      113.27724      97.622065      298.64768     -236.56926      55014.077      56183.871      28503.698      27680.172    
    315000   315000         0.25764431     0.25569511     346.69307      248.34091      98.352164      97.608087      295.93555      431.52609      58220.858      56087.037      28244.846      27842.191    
    316000   316000         0.25761192     0.27578579     338.49782      247.32952      91.168299      97.599994      296.54636      789.66021      60000.344      56095.613      28303.143      27792.47     
    317000   317000         0.25727537     0.25268534     355.45153      256.08471      99.36682       97.594022      297.70067     -289.07906      54645.545      56074.99       28413.313      27661.677    
    318000   318000         0.2581027      0.24812792     346.49763      244.99143      101.5062       97.583336      296.72358      173.20514      56850.414      55993.945      28320.057      27673.888    
    319000   319000         0.25740417     0.33513209     329.99885      255.0427       74.956152      97.590536      296.61975     -422.00122      53877.232      55963.954      28310.147      27653.806    
    320000   320000         0.25817564     0.23685912     359.12894      252.77495      106.35399      97.572772      297.48056      82.254713      56519.23       56112.495      28392.306      27720.189    
    321000   321000         0.25832806     0.21639191     358.40499      241.93537      116.46962      97.562317      295.95293      355.99016      57866.781      56106.473      28246.504      27859.968    
    322000   322000         0.25851368     0.26972104     347.05357      253.55289      93.500682      97.55422       299.18665      546.77874      58963.092      56259.368      28555.139      27704.229    
    323000   323000         0.2587786      0.24410992     352.7206       249.31187      103.40873      97.547082      298.02198     -216.66006      55039.761      56111.107      28443.98       27667.127    
    324000   324000         0.25805238     0.26278085     348.03842      252.23979      95.798627      97.554013      298.12256     -393.03872      54263.137      56206.644      28453.579      27753.065    
    325000   325000         0.2583362      0.25337025     344.87166      245.40633      99.465329      97.553325      297.59799      205.74442      57052.542      56035.172      28403.513      27631.659    
    326000   326000         0.25850847     0.26572532     345.10763      250.21124      94.896392      97.545638      295.9928       56.736148      56217.288      55936.737      28250.31       27686.427    
    327000   327000         0.25871072     0.25510616     346.08981      247.17124      98.918572      97.540359      298.40791     -252.91419      54745.551      55996.168      28480.814      27515.353    
    328000   328000         0.25854389     0.23761206     357.79529      251.6667       106.12859      97.536373      296.77432     -278.03396      54711.757      56086.586      28324.9        27761.686    
    329000   329000         0.25912396     0.25363191     355.05819      255.39404      99.664146      97.551797      297.07458      78.06856       56587.466      56201.43       28353.558      27847.873    
    330000   330000         0.25842781     0.22635321     358.96216      247.57909      111.38308      97.558837      296.47472      367.99792      57969.491      56149.806      28296.305      27853.501    
    331000   331000         0.25868008     0.23625025     357.56273      250.7383       106.82443      97.561815      298.88063      215.06807      57362.506      56299.032      28525.931      27773.101    
    332000   332000         0.25854017     0.26877339     340.70341      246.84425      93.859155      97.574175      297.96997      210.52133      57283.337      56242.346      28439.016      27803.33     
    333000   333000         0.25843864     0.26868044     346.13385      252.26967      93.864179      97.58397       297.94625     -214.27068      55137.81       56197.341      28436.752      27760.59     
    334000   334000         0.2587493      0.26378022     346.11265      250.38425      95.728396      97.589664      297.58686      350.95863      58021.44       56286.011      28402.451      27883.56     
    335000   335000         0.25839924     0.2358471      352.70239      245.78652      106.91587      97.584639      298.80375      495.16669      58579.748      56131.236      28518.594      27612.642    
    336000   336000         0.25787902     0.26287431     353.95133      258.22966      95.72167       97.575862      299.11834     -316.97291      54511.001      56078.376      28548.62       27529.757    
    337000   337000         0.25724619     0.27770917     340.30542      249.92423      90.381185      97.570672      297.44243     -321.32698      54412.299      56001.204      28388.666      27612.538    
    338000   338000         0.25831893     0.23369514     353.88059      246.04316      107.83743      97.558022      296.36752      437.36245      58253.215      56090.534      28286.074      27804.46     
    339000   339000         0.25822469     0.29782599     332.05508      247.46724      84.587835      97.560213      297.62421     -380.80338      54107.359      55990.365      28406.016      27584.349    
    340000   340000         0.25792724     0.28692886     336.50871      248.81815      87.690556      97.550575      298.05095      176.40205      56987.435      56115.158      28446.745      27668.413    
    341000   341000         0.25779678     0.29369561     344.11388      258.4942       85.619681      97.542429      296.73686     -409.0454       54049.911      56072.568      28321.325      27751.243    
    342000   342000         0.25814844     0.25559954     350.64686      252.13994      98.506918      97.534286      297.3713       246.49676      57225.343      56006.46       28381.877      27624.583    
    343000   343000         0.2589098      0.23641854     354.21588      247.40627      106.80961      97.531155      296.44847     -346.14284      54443.966      56155.582      28293.8        27861.782    
    344000   344000         0.25887032     0.29145815     344.76015      258.13761      86.622534      97.526994      296.58632      562.69985      58966.278      56183.826      28306.957      27876.869    
[...]
    932000   932000         0.26091496     0.23966857     349.08618      242.88754      106.19864      97.550847      298.55774      490.03716      58778.916      56355.769      28495.114      27860.655    
    933000   933000         0.26084078     0.22598363     360.5933       247.99373      112.59957      97.552458      297.6066      -193.27039      55550.901      56506.589      28404.335      28102.254    
    934000   934000         0.26076404     0.23309939     351.07004      241.93412      109.13591      97.557604      299.70061      94.169479      56906.13       56440.479      28604.193      27836.286    
    935000   935000         0.26082734     0.29867614     339.48898      254.28964      85.19934       97.562666      299.68858     -370.31361      54743.013      56574.149      28603.044      27971.104    
    936000   936000         0.26084714     0.23902918     348.06559      241.59614      106.46945      97.56405       298.97349      87.849375      56999.838      56565.438      28534.794      28030.644    
    937000   937000         0.26090378     0.25836705     350.80431      252.28181      98.522498      97.564579      300.37991     -605.6061       53558.31       56552.926      28669.027      27883.899    
    938000   938000         0.26081402     0.32051775     342.15543      262.76292      79.392514      97.566496      299.95148     -46.807383      56431.488      56662.943      28628.136      28034.807    
    939000   939000         0.26076489     0.26589381     343.95055      248.26341      95.68714       97.569188      300.09687     -410.85162      54454.535      56486.124      28642.013      27844.111    
    940000   940000         0.26078113     0.25526077     350.35138      250.67092      99.680463      97.57037       299.6421      -677.62056      53178.793      56529.508      28598.608      27930.9      
    941000   941000         0.26084038     0.23983522     354.41337      248.29388      106.1195       97.573821      301.38343     -584.15905      53611.673      56500.237      28764.805      27735.432    
    942000   942000         0.26102192     0.28246834     343.79977      253.63636      90.163404      97.571525      299.31808      100.80954      57035.017      56536.532      28567.683      27968.849    
    943000   943000         0.26087636     0.29407058     336.85676      250.29822      86.558533      97.572344      298.3238      -251.12729      55102.404      56344.184      28472.787      27871.398    
    944000   944000         0.26096207     0.26035177     347.83146      250.03074      97.80072       97.571997      299.71232     -200.04587      55505.343      56494.535      28605.31       27889.225    
    945000   945000         0.2609934      0.2730687      344.8987       251.64059      93.258112      97.572856      298.53585     -334.81835      54927.269      56582.887      28493.025      28089.862    
    946000   946000         0.26091839     0.25435274     353.38183      253.2889       100.09293      97.574227      299.34229      12.132314      56548.679      56488.687      28569.994      27918.693    
    947000   947000         0.26107368     0.23472254     360.96351      252.44055      108.52296      97.569333      300.49968     -445.94866      54385.447      56590.585      28680.458      27910.128    
    948000   948000         0.26088491     0.2369351      352.17712      244.74774      107.42938      97.567122      300.85558      156.43632      57086.246      56312.696      28714.426      27598.27     
    949000   949000         0.26081017     0.26943117     346.42762      251.98413      94.443485      97.565288      298.46106     -154.043        55616.898      56378.613      28485.887      27892.726    
    950000   950000         0.26084129     0.26633979     347.2938       251.74298      95.550821      97.56502       298.39444      183.7694       57285.853      56377.146      28479.529      27897.618    
    951000   951000         0.26084331     0.26916868     348.45266      253.90952      94.543136      97.560685      299.82228      334.02522      58056.376      56404.68       28615.805      27788.875    
    952000   952000         0.26095004     0.24797714     354.94765      252.28909      102.65857      97.554987      298.93178      77.354558      56822.011      56439.507      28530.814      27908.693    
    953000   953000         0.26077796     0.22871484     359.31021      248.07405      111.23616      97.559474      300.96575     -411.9889       54349.148      56386.361      28724.94       27661.42     
    954000   954000         0.2609798      0.22435444     356.4638       242.97816      113.48563      97.559297      297.65749     -439.80534      54200.916      56375.677      28409.192      27966.485    
    955000   955000         0.26102592     0.24204058     359.54147      254.32627      105.2152       97.562524      299.63346      160.66275      57271.758      56477.309      28597.784      27879.526    
    956000   956000         0.26112316     0.25637365     356.84063      257.46812      99.372509      97.565048      300.62163     -481.75219      54078.702      56460.882      28692.097      27768.785    
    957000   957000         0.26093271     0.26412294     353.1266       256.74004      96.386565      97.565009      301.45363      416.7413       58428.006      56367.293      28771.505      27595.788    
    958000   958000         0.26096712     0.25160448     352.49782      251.30376      101.19406      97.56355       300.00737      32.068645      56490.719      56332.145      28633.47       27698.675    
    959000   959000         0.2609207      0.25227281     349.19844      248.2922       100.90624      97.561827      297.59119     -23.896126      56194.539      56312.702      28402.864      27909.837    
    960000   960000         0.26106055     0.25815186     350.79539      252.13295      98.662444      97.563164      298.39454     -568.56278      53405.193      56216.636      28479.538      27737.098    
    961000   961000         0.26083243     0.30905548     345.97543      263.63752      82.337908      97.560652      299.11356     -305.45359      54663.787      56174.202      28548.163      27626.039    
    962000   962000         0.26105527     0.23335952     362.1781       253.04178      109.13632      97.557882      298.75407     -21.010878      56238.565      56342.46       28513.852      27828.608    
    963000   963000         0.2608651      0.28656616     341.91286      253.10564      88.807217      97.55672       297.91518     -683.67541      52939.489      56320.143      28433.787      27886.356    
    964000   964000         0.26111291     0.27469753     343.26264      250.53033      92.732311      97.556788      298.89214      514.85972      58796.559      56250.668      28527.03       27723.637    
    965000   965000         0.26102777     0.2492846      353.71139      251.55718      102.1542       97.558471      300.05308     -363.69131      54475.245      56273.634      28637.833      27635.801    
    966000   966000         0.26092968     0.31680814     339.58985      259.2389       80.35095       97.558219      297.32818      169.6935       57130.885      56291.781      28377.762      27914.018    
    967000   967000         0.26111804     0.27671588     342.73234      250.67151      92.060828      97.560066      296.73778     -5.636922       56321.032      56348.906      28321.413      28027.493    
    968000   968000         0.2610422      0.26678815     347.23674      251.78157      95.455172      97.556292      298.42358     -441.10032      54082.274      56263.437      28482.31       27781.127    
    969000   969000         0.261155       0.25267419     350.97621      250.14929      100.82691      97.552638      298.99089     -555.32929      53624.053      56370.059      28536.455      27833.604    
    970000   970000         0.26109184     0.26535368     352.17064      256.18252      95.988123      97.554951      298.83609      189.72405      57243.326      56305.174      28521.681      27783.493    
    971000   971000         0.2610555      0.2554731      351.06994      251.38749      99.682446      97.550841      297.24602      140.87004      56890.958      56194.38       28369.92       27824.46     
    972000   972000         0.2611683      0.26600866     347.18684      251.41036      95.776481      97.551553      300.33196      352.9052       58173.212      56428.158      28664.45       27763.708    
    973000   973000         0.26128439     0.24317169     359.2896       254.46766      104.82194      97.555501      299.02522     -254.82078      55254.033      56514.077      28539.732      27974.345    
    974000   974000         0.26111495     0.26630404     348.79823      253.14569      95.652544      97.553426      298.49484      597.23567      59377.159      56423.933      28489.11       27934.823    
    975000   975000         0.26117054     0.24607836     351.31683      247.78237      103.53445      97.551538      299.59578     -123.23101      55709.166      56318.522      28594.187      27724.334    
    976000   976000         0.26116915     0.28155532     352.41832      261.93124      90.487082      97.550261      301.96772      506.83819      58980.192      56473.967      28820.572      27653.395    
    977000   977000         0.26093615     0.24625115     344.93915      241.57414      103.36501      97.547816      297.29931      555.55217      59210.72       56463.612      28375.006      28088.606    
    978000   978000         0.26105097     0.29892273     343.34196      258.15805      85.183911      97.541899      300.2429      -43.890651      56285.163      56502.194      28655.95       27846.244    
    979000   979000         0.26114915     0.28415354     347.14881      257.50274      89.64607       97.542908      299.4782      -416.46897      54159.875      56219.241      28582.965      27636.276    
    980000   980000         0.26119236     0.27130163     345.73211      251.82721      93.904906      97.539431      297.90187      106.31962      56803.467      56277.735      28432.516      27845.219    
    981000   981000         0.26143062     0.21486482     361.3641       242.68128      118.68282      97.543138      298.37917     -277.76256      54911.765      56285.252      28478.071      27807.181    
    982000   982000         0.26126559     0.27184293     344.45747      250.70627      93.75119       97.546708      297.69403     -123.60488      55589.979      56201.184      28412.68       27788.504    
    983000   983000         0.26144362     0.25921355     345.50872      247.11717      98.391546      97.552283      297.23738     -184.57596      55433.848      56346.544      28369.096      27977.448    
    984000   984000         0.26127597     0.24587086     354.5276       250.85741      103.6702       97.557688      299.36312     -43.466506      55998.872      56213.807      28571.982      27641.825    
    985000   985000         0.26123793     0.28126953     345.12629      254.51634      90.609948      97.557876      299.02141      359.63749      58035.072      56256.728      28539.368      27717.36     
    986000   986000         0.26123573     0.24196126     348.80533      243.47376      105.33157      97.560008      298.743       -246.46347      55016.748      56235.467      28512.796      27722.67     
    987000   987000         0.26130534     0.25251094     357.45816      256.4973       100.96086      97.562956      297.33574      256.00995      57439.967      56174.043      28378.483      27795.56     
    988000   988000         0.26116877     0.27882785     344.84538      253.46199      91.383388      97.562332      296.45454      447.04804      58362.798      56152.224      28294.379      27857.845    
    989000   989000         0.26122127     0.2530151      351.64744      250.92149      100.72595      97.561687      298.8227       538.93436      58981.828      56316.893      28520.402      27796.49     
    990000   990000         0.26140052     0.22012193     363.85849      248.0002       115.85829      97.562735      297.93145      474.24806      58554.235      56209.162      28435.339      27773.823    
    991000   991000         0.26120216     0.31848393     333.24202      253.22914      80.012882      97.559749      297.94415     -80.974395      55823.512      56223.916      28436.552      27787.364    
    992000   992000         0.26114962     0.29073119     338.52138      250.89343      87.627949      97.553952      298.64358      78.803895      56859.745      56470.074      28503.307      27966.767    
    993000   993000         0.26130474     0.26024027     346.04574      248.09313      97.952609      97.553583      299.23397      230.51769      57806.889      56667.02       28559.655      28107.365    
    994000   994000         0.26117273     0.24422045     354.82913      250.50161      104.32752      97.555794      300.38443     -83.585386      56161.302      56574.617      28669.458      27905.159    
    995000   995000         0.26113532     0.28905448     344.61691      256.48853      88.128374      97.550578      299.80289      353.27573      58203.251      56456.365      28613.955      27842.41     
    996000   996000         0.2613764      0.23014809     359.28369      248.49703      110.78666      97.550274      300.03292     -413.29763      54471.35       56515.034      28635.909      27879.126    
    997000   997000         0.26108842     0.31136775     335.32937      253.52932      81.800053      97.552769      297.77291      831.44301      60336.598      56225.258      28420.208      27805.051    
    998000   998000         0.26107353     0.23889703     354.54968      247.9402       106.60948      97.553702      299.20718     -37.008729      56110.642      56293.643      28557.099      27736.545    
    999000   999000         0.26088939     0.25105152     347.8362       246.46238      101.37382      97.551115      297.18627     -297.61913      54811.949      56283.624      28364.218      27919.406    
   1000000   1000000        0.26113862     0.25035057     349.7862       248.03162      101.75458      97.550936      296.54292      548.62102      58924.803      56211.968      28302.815      27909.154    
   1001000   1001000        0.26108996     0.2817521      346.08001      255.68006      90.399953      97.554026      299.05266      353.29085      58031.919      56284.958      28542.351      27742.607    
   1002000   1002000        0.26098142     0.35279077     338.0791       265.9141       72.164997      97.551561      299.79142      173.39113      57196.666      56339.277      28612.86       27726.418    
   1003000   1003000        0.2610557      0.29334217     343.22979      256.41403      86.815756      97.552832      299.42229     -110.88088      55794.438      56342.724      28577.629      27765.095    
   1004000   1004000        0.26086209     0.24144848     350.29386      244.89737      105.39649      97.552779      296.93517     -308.08407      54527.869      56051.29       28340.252      27711.038    
   1005000   1005000        0.26103836     0.26433142     346.47456      250.14274      96.331815      97.547065      297.0574      -301.49569      54719.491      56210.334      28351.918      27858.416    
   1006000   1006000        0.26113353     0.27591348     347.7656       255.44721      92.318384      97.543532      301.72532      116.29983      56922.479      56347.397      28797.436      27549.961    
   1007000   1007000        0.26120622     0.26725718     347.48912      252.15613      95.332997      97.54143       299.57875      56.956018      56509.524      56227.886      28592.562      27635.324    
   1008000   1008000        0.26126593     0.26328733     347.48909      250.69868      96.790415      97.539277      299.04213     -113.61144      55691.254      56253.042      28541.346      27711.696    
   1009000   1009000        0.26124325     0.26469089     345.4289       249.16018      96.26872       97.539185      297.6557      -21.289529      55971.338      56076.611      28409.021      27667.59     
   1010000   1010000        0.26127455     0.29093116     347.44661      259.85092      87.595688      97.538453      296.97398      608.4374       59234.898      56226.282      28343.956      27882.326    
   1011000   1011000        0.26135065     0.23262085     354.32084      244.73166      109.58919      97.542247      298.30362     -2.0613451      56243.925      56254.118      28470.861      27783.258    
   1012000   1012000        0.26130969     0.25331743     350.05024      249.43128      100.61896      97.541488      298.14172      584.02053      59193.338      56305.459      28455.408      27850.051    
   1013000   1013000        0.26126284     0.24099867     354.18997      248.44464      105.74532      97.543463      297.78821      451.23558      58580.641      56349.36       28421.668      27927.692    
   1014000   1014000        0.2612405      0.25398347     345.0911       244.76344      100.32766      97.540645      297.26591     -222.32418      55250.343      56349.697      28371.819      27977.878    
   1015000   1015000        0.26124055     0.2869379      338.84652      250.04156      88.804952      97.540397      296.68428     -525.73058      53602.491      56202.136      28316.307      27885.83     
   1016000   1016000        0.26130774     0.26398281     349.39945      252.84854      96.550909      97.539325      299.3889      -342.096        54787.728      56479.333      28574.442      27904.891    
   1017000   1017000        0.26122867     0.22652449     357.49988      245.01876      112.48112      97.538024      297.3459      -88.137782      55972.598      56408.424      28379.453      28028.972    
   1018000   1018000        0.26134449     0.25873698     347.26585      248.74325      98.522605      97.539616      299.82438     -213.70606      55326.879      56383.618      28616.005      27767.613    
   1019000   1019000        0.26107512     0.26208556     351.29449      254.12853      97.165963      97.542025      300.55786      573.71889      59321.558      56484.619      28686.01       27798.609    
   1020000   1020000        0.26117097     0.25070443     347.40515      245.7952       101.60995      97.537886      299.53083     -1.6557032      56519.43       56527.618      28587.988      27939.629    
   1021000   1021000        0.26128241     0.24188299     348.36401      243.00231      105.3617       97.538913      297.89953     -89.855742      56045.858      56490.179      28432.293      28057.886    
Loop time of 10850.1 on 32 procs for 1000000 steps with 32020 atoms

Performance: 7.963 ns/day, 3.014 hours/ns, 92.165 timesteps/s, 2.951 Matom-step/s
99.5% CPU use with 32 MPI tasks x 1 OpenMP threads

MPI task timing breakdown:
Section |  min time  |  avg time  |  max time  |%varavg| %total
---------------------------------------------------------------
Pair    | 6968.3     | 7518.8     | 8401.2     | 341.2 | 69.30
Bond    | 195.46     | 205.56     | 221.79     |  42.1 |  1.89
Kspace  | 1083.4     | 1955.7     | 2499.6     | 658.3 | 18.02
Neigh   | 344.57     | 355.17     | 358.3      |  18.3 |  3.27
Comm    | 393.33     | 517.24     | 690.97     | 306.2 |  4.77
Output  | 0.17208    | 0.18247    | 0.42432    |  10.2 |  0.00
Modify  | 183.34     | 265.31     | 358.25     | 321.7 |  2.45
Other   |            | 32.08      |            |       |  0.30

Nlocal:        1000.62 ave        1040 max         936 min
Histogram: 1 0 3 3 2 6 3 5 4 5
Nghost:        11099.9 ave       11223 max       10944 min
Histogram: 1 1 3 3 4 6 5 5 2 2
Neighs:         542922 ave      601947 max      483165 min
Histogram: 1 3 0 3 11 3 6 3 1 1

Total # of neighbors = 17373504
Ave neighs/atom = 542.58289
Ave special neighs/atom = 11.48782
Neighbor list builds = 28735
Dangerous builds = 0
Total wall time: 3:04:31
