units real
atom_style full
boundary p p p

# styles
pair_style lj/charmm/coul/long 8.0 12.0
kspace_style pppm 1e-6
dielectric 1.000000
bond_style harmonic
angle_style harmonic
dihedral_style fourier
improper_style cvff
special_bonds amber
pair_modify mix arithmetic
neighbor 2.0 bin
neigh_modify delay 0 every 1 check yes

# system definition
read_data ../final.data
Reading data file ...
  orthogonal box = (-41.07686 -32.676339 -31.575799) to (41.07686 32.676339 31.575799)
  4 by 4 by 2 MPI processor grid
  reading atoms ...
  32020 atoms
  reading velocities ...
  32020 velocities
  scanning bonds ...
  3 = max bonds/atom
  scanning angles ...
  6 = max angles/atom
  scanning dihedrals ...
  15 = max dihedrals/atom
  scanning impropers ...
  1 = max impropers/atom
  reading bonds ...
  34010 bonds
  reading angles ...
  60000 angles
  reading dihedrals ...
  95910 dihedrals
  reading impropers ...
  10000 impropers
Finding 1-2 1-3 1-4 neighbors ...
  special bond factors lj:    0        0        0.5     
  special bond factors coul:  0        0        0.8333333333333334
     4 = max # of 1-2 neighbors
     8 = max # of 1-3 neighbors
    18 = max # of 1-4 neighbors
    22 = max # of special neighbors
  special bonds CPU = 0.073 seconds
  read_data CPU = 0.586 seconds
# do not reset velocities

# vars
variable dt equal 1.0
variable tLog equal 1000
variable nEvery equal 10
variable nRepeat equal 100
variable boolDump equal 0
variable tDump equal 1000

variable tPreeq equal 10000
variable tPrerun equal 10000
variable tDelay equal 1000
variable tTCrun equal 1000000

# desiered temperature difference
variable Tavg equal 300.0
variable TempDiff equal 100.0
variable Thi equal ${Tavg}+(${TempDiff}/2)
variable Thi equal 300+(${TempDiff}/2)
variable Thi equal 300+(100/2)
variable Tlo equal ${Tavg}-(${TempDiff}/2)
variable Tlo equal 300-(${TempDiff}/2)
variable Tlo equal 300-(100/2)

# defining regions
variable hot_lo equal (lx*0)+xlo
variable hot_hi equal (lx*0.05)+xlo
variable cold_lo equal (lx*0.50)+xlo
variable cold_hi equal (lx*0.55)+xlo

# define heating and cooling block regions
region hot block ${hot_lo} ${hot_hi} INF INF INF INF units box
region hot block -41.07686043132 ${hot_hi} INF INF INF INF units box
region hot block -41.07686043132 -36.969174388188 INF INF INF INF units box
region cold block ${cold_lo} ${cold_hi} INF INF INF INF units box
region cold block 0 ${cold_hi} INF INF INF INF units box
region cold block 0 4.107686043132 INF INF INF INF units box
compute Thot all temp/region hot
compute Tcold all temp/region cold

# STEP 1 - 1st equilibration (nve)
# 1a - thermo output for md1
thermo_style custom step time temp c_Thot c_Tcold press enthalpy etotal ke pe
thermo_modify colname c_Thot Temp_hot colname c_Tcold Temp_cold
thermo_modify flush yes
thermo ${tLog}
thermo 1000

# 1b - nve equilibration
timestep ${dt}
timestep 1
fix md1 all nve
run ${tPreeq}
run 10000
PPPM initialization ...
  using 12-bit tables for long-range coulomb (src/kspace.cpp:342)
  G vector (1/distance) = 0.23713698
  grid = 45 36 36
  stencil order = 5
  estimated absolute RMS force accuracy = 0.00028675184
  estimated relative force accuracy = 8.6354464e-07
  using double precision FFTW3
  3d grid and FFT values/proc = 7200 3240
Generated 10 of 10 mixed pair_coeff terms from arithmetic mixing rule
Neighbor list info ...
  update: every = 1 steps, delay = 0 steps, check = yes
  max neighbors/atom: 2000, page size: 100000
  master list distance cutoff = 14
  ghost atom cutoff = 14
  binsize = 7, bins = 12 10 10
  1 neighbor lists, perpetual/occasional/extra = 1 0 0
  (1) pair lj/charmm/coul/long, perpetual
      attributes: half, newton on
      pair build: half/bin/newton
      stencil: half/bin/3d
      bin: standard
Per MPI rank memory allocation (min/avg/max) = 17.69 | 17.74 | 18.22 Mbytes
   Step          Time           Temp         Temp_hot      Temp_cold        Press         Enthalpy        TotEng         KinEng         PotEng    
         0   0              299.02528      285.71405      299.54402     -153.33602      55796.692      56554.912      28539.738      28015.174    
      1000   1000           299.34921      284.02314      300.46315     -533.94942      53910.169      56550.455      28570.654      27979.802    
      2000   2000           300.69825      295.75469      303.29906      293.70498      57997.453      56545.133      28699.41       27845.723    
      3000   3000           300.66594      296.23304      311.89109      304.79857      58051.772      56544.597      28696.326      27848.271    
      4000   4000           302.24223      299.80575      307.5937       50.633677      56790.187      56539.813      28846.771      27693.042    
      5000   5000           298.64446      304.28299      309.23858     -593.91796      53609.237      56546.057      28503.391      28042.667    
      6000   6000           300.70099      304.20556      303.37311     -2.0153206      56533.387      56543.353      28699.671      27843.681    
      7000   7000           299.95165      304.61009      310.48425     -241.02072      55351.872      56543.678      28628.153      27915.525    
      8000   8000           299.2205       288.11207      306.30832     -29.12992       56404.068      56548.111      28558.369      27989.741    
      9000   9000           298.40771      297.99241      311.91447     -542.18678      53869.292      56550.31       28480.795      28069.516    
     10000   10000          298.80037      303.57979      299.59727      74.129188      56914.001      56547.445      28518.272      28029.174    
Loop time of 105.701 on 32 procs for 10000 steps with 32020 atoms

Performance: 8.174 ns/day, 2.936 hours/ns, 94.607 timesteps/s, 3.029 Matom-step/s
99.4% CPU use with 32 MPI tasks x 1 OpenMP threads

MPI task timing breakdown:
Section |  min time  |  avg time  |  max time  |%varavg| %total
---------------------------------------------------------------
Pair    | 68.365     | 75.733     | 83.148     |  39.5 | 71.65
Bond    | 1.9046     | 2.0616     | 2.3335     |   6.7 |  1.95
Kspace  | 10.584     | 17.87      | 24.461     |  80.8 | 16.91
Neigh   | 3.2893     | 3.4062     | 3.4561     |   2.2 |  3.22
Comm    | 4.2552     | 5.3235     | 7.411      |  33.4 |  5.04
Output  | 0.00090797 | 0.0016645  | 0.0041726  |   1.7 |  0.00
Modify  | 0.051374   | 0.059451   | 0.095975   |   3.8 |  0.06
Other   |            | 1.246      |            |       |  1.18

Nlocal:        1000.62 ave        1047 max         950 min
Histogram: 2 2 3 1 5 8 4 2 4 1
Nghost:        11111.1 ave       11244 max       10988 min
Histogram: 4 3 2 4 2 7 3 2 4 1
Neighs:         542914 ave      601481 max      494271 min
Histogram: 2 2 3 6 4 8 4 1 1 1

Total # of neighbors = 17373263
Ave neighs/atom = 542.57536
Ave special neighs/atom = 11.48782
Neighbor list builds = 275
Dangerous builds = 0
unfix md1

# STEP 2 - pre run
# 2a - impose nve
fix md2 all nve

# 2b - impose thermostating
fix hot all langevin ${Thi} ${Thi} 100.0 57485 tally yes
fix hot all langevin 350 ${Thi} 100.0 57485 tally yes
fix hot all langevin 350 350 100.0 57485 tally yes
fix cold all langevin ${Tlo} ${Tlo} 100.0 12490 tally yes
fix cold all langevin 250 ${Tlo} 100.0 12490 tally yes
fix cold all langevin 250 250 100.0 12490 tally yes
fix_modify hot temp Thot
fix_modify cold temp Tcold
# calculate tdiff of regions
variable tdiff equal c_Thot-c_Tcold

# 2c - thermo output
thermo_style custom step time temp c_Thot c_Tcold f_hot f_cold v_tdiff press enthalpy etotal ke pe
WARNING: New thermo_style command, previous thermo_modify settings will be lost (src/output.cpp:904)
thermo_modify colname c_Thot Temp_hot colname c_Tcold Temp_cold               colname f_hot E_hot colname f_cold E_cold               colname v_tdiff dTemp_step
thermo_modify flush yes
thermo ${tLog}
thermo 1000

# 2d - pre run
run ${tPrerun}
run 10000
PPPM initialization ...
  using 12-bit tables for long-range coulomb (src/kspace.cpp:342)
  G vector (1/distance) = 0.23713698
  grid = 45 36 36
  stencil order = 5
  estimated absolute RMS force accuracy = 0.00028675184
  estimated relative force accuracy = 8.6354464e-07
  using double precision FFTW3
  3d grid and FFT values/proc = 7200 3240
Generated 10 of 10 mixed pair_coeff terms from arithmetic mixing rule
Per MPI rank memory allocation (min/avg/max) = 18.44 | 18.53 | 18.98 Mbytes
   Step          Time           Temp         Temp_hot      Temp_cold        E_hot          E_cold       dTemp_step       Press         Enthalpy        TotEng         KinEng         PotEng    
     10000   10000          298.80037      302.87115      299.59727     -0             -0              3.2738755      74.129188      56914.001      56547.445      28518.272      28029.174    
     11000   11000          298.03486      347.88141      247.72313     -760.60784      1117.3838      100.15828      115.69849      56764.584      56192.475      28445.209      27747.266    
     12000   12000          299.57793      346.27852      259.1205      -1271.472       1311.6991      87.158011      487.97641      58928.435      56515.477      28592.484      27922.993    
     13000   13000          297.826        337.03678      257.75819     -1376.5138      1427.1669      79.278586      481.50435      58887.116      56506.161      28425.275      28080.886    
     14000   14000          299.56531      343.42492      258.79548     -1538.1937      1576.112       84.629433      151.06299      57276.45       56529.47       28591.279      27938.191    
     15000   15000          299.94582      352.11151      250.62462     -1822.1704      1791.2681      101.4869      -253.96426      55346.658      56602.466      28627.596      27974.871    
     16000   16000          298.40593      335.20106      258.34835     -1915.8199      1871.368       76.852708      790.36994      60529.176      56620.936      28480.625      28140.31     
     17000   17000          299.47112      340.50704      251.57653     -1956.7232      2132.7995      88.930502     -555.99671      53648.067      56397.373      28582.289      27815.084    
     18000   18000          300.0354       352.62273      239.36445     -2107.7886      2188.8203      113.25828      259.65852      57781.902      56497.937      28636.145      27861.791    
     19000   19000          298.63696      354.56199      246.47172     -2129.1003      2296.9852      108.09027      566.91216      59214.901      56411.62       28502.675      27908.945    
     20000   20000          299.81958      356.72088      253.0575      -2392.7205      2425.0247      103.66338      376.8269       58414.357      56551.015      28615.547      27935.467    
Loop time of 107.596 on 32 procs for 10000 steps with 32020 atoms

Performance: 8.030 ns/day, 2.989 hours/ns, 92.940 timesteps/s, 2.976 Matom-step/s
99.4% CPU use with 32 MPI tasks x 1 OpenMP threads

MPI task timing breakdown:
Section |  min time  |  avg time  |  max time  |%varavg| %total
---------------------------------------------------------------
Pair    | 67.103     | 75.563     | 83.853     |  40.9 | 70.23
Bond    | 1.8882     | 2.0715     | 2.3377     |   6.9 |  1.93
Kspace  | 10.177     | 18.264     | 26.75      |  82.2 | 16.97
Neigh   | 3.4541     | 3.5832     | 3.6162     |   2.0 |  3.33
Comm    | 4.1225     | 5.3042     | 7.4585     |  34.7 |  4.93
Output  | 0.0010663  | 0.0011739  | 0.0030634  |   1.0 |  0.00
Modify  | 1.5405     | 2.5241     | 3.6404     |  39.7 |  2.35
Other   |            | 0.2847     |            |       |  0.26

Nlocal:        1000.62 ave        1055 max         930 min
Histogram: 1 1 1 6 3 5 8 1 2 4
Nghost:          11099 ave       11214 max       10937 min
Histogram: 1 1 3 2 3 5 5 8 2 2
Neighs:         542896 ave      592162 max      483645 min
Histogram: 2 0 2 6 4 3 6 4 4 1

Total # of neighbors = 17372656
Ave neighs/atom = 542.5564
Ave special neighs/atom = 11.48782
Neighbor list builds = 290
Dangerous builds = 0
unfix md2

# STEP 3 - md for tc caluclation
# 3a - impose nve
fix md3 all nve

# 3b - calculate and output thermal profile
compute ke all ke/atom
variable temp atom c_ke/(1.5*0.001987204)
compute layers all chunk/atom bin/1d x lower 0.05 units reduced
fix bins all ave/chunk ${nEvery} ${nRepeat} ${tLog} layers v_temp file Tprofile_x_lav.dat
fix bins all ave/chunk 10 ${nRepeat} ${tLog} layers v_temp file Tprofile_x_lav.dat
fix bins all ave/chunk 10 100 ${tLog} layers v_temp file Tprofile_x_lav.dat
fix bins all ave/chunk 10 100 1000 layers v_temp file Tprofile_x_lav.dat

# 3c - reset thermostats to zero energy accumulation
fix hot all langevin ${Thi} ${Thi} 100.0 57485 tally yes
fix hot all langevin 350 ${Thi} 100.0 57485 tally yes
fix hot all langevin 350 350 100.0 57485 tally yes
fix cold all langevin ${Tlo} ${Tlo} 100.0 12490 tally yes
fix cold all langevin 250 ${Tlo} 100.0 12490 tally yes
fix cold all langevin 250 250 100.0 12490 tally yes
fix_modify hot temp Thot
fix_modify cold temp Tcold

# 3c - compute average tdiff
fix ave all ave/time ${nEvery} ${nRepeat} ${tLog} v_tdiff ave running
fix ave all ave/time 10 ${nRepeat} ${tLog} v_tdiff ave running
fix ave all ave/time 10 100 ${tLog} v_tdiff ave running
fix ave all ave/time 10 100 1000 v_tdiff ave running

# 3d - time delay run
variable aTime equal time
variable start_time equal ${aTime}
variable start_time equal 20000
run ${tDelay}
run 1000
PPPM initialization ...
  using 12-bit tables for long-range coulomb (src/kspace.cpp:342)
  G vector (1/distance) = 0.23713698
  grid = 45 36 36
  stencil order = 5
  estimated absolute RMS force accuracy = 0.00028675184
  estimated relative force accuracy = 8.6354464e-07
  using double precision FFTW3
  3d grid and FFT values/proc = 7200 3240
Generated 10 of 10 mixed pair_coeff terms from arithmetic mixing rule
Per MPI rank memory allocation (min/avg/max) = 18.69 | 18.78 | 19.23 Mbytes
   Step          Time           Temp         Temp_hot      Temp_cold        E_hot          E_cold       dTemp_step       Press         Enthalpy        TotEng         KinEng         PotEng    
     20000   20000          299.81958      356.01491      253.0575      -0             -0              102.95742      376.8269       58414.357      56551.015      28615.547      27935.467    
     21000   21000          297.16637      338.36159      239.58275      88.016533      238.25991      98.778844     -157.48759      55453.499      56232.248      28362.318      27869.93     
Loop time of 10.6529 on 32 procs for 1000 steps with 32020 atoms

Performance: 8.110 ns/day, 2.959 hours/ns, 93.871 timesteps/s, 3.006 Matom-step/s
99.4% CPU use with 32 MPI tasks x 1 OpenMP threads

MPI task timing breakdown:
Section |  min time  |  avg time  |  max time  |%varavg| %total
---------------------------------------------------------------
Pair    | 6.7422     | 7.5666     | 8.258      |  13.0 | 71.03
Bond    | 0.18949    | 0.2073     | 0.23446    |   2.3 |  1.95
Kspace  | 1.0213     | 1.7117     | 2.5478     |  27.2 | 16.07
Neigh   | 0.32947    | 0.34209    | 0.34568    |   0.7 |  3.21
Comm    | 0.40395    | 0.5401     | 0.75902    |  11.9 |  5.07
Output  | 9.8264e-05 | 0.00010493 | 0.00024198 |   0.0 |  0.00
Modify  | 0.1589     | 0.25735    | 0.37228    |  13.0 |  2.42
Other   |            | 0.0276     |            |       |  0.26

Nlocal:        1000.62 ave        1062 max         945 min
Histogram: 2 3 2 4 7 5 3 3 2 1
Nghost:        11117.5 ave       11251 max       10986 min
Histogram: 2 0 3 5 6 5 6 3 1 1
Neighs:         542925 ave      598038 max      493110 min
Histogram: 2 3 3 6 5 4 2 4 2 1

Total # of neighbors = 17373592
Ave neighs/atom = 542.58563
Ave special neighs/atom = 11.48782
Neighbor list builds = 28
Dangerous builds = 0

# 3f - calculate kappa
variable kappa_inst equal (0.5*(abs(f_hot)+abs(f_cold))/(time-${start_time})/(ly*lz)/2.0)*(lx/2.0)/v_tdiff*69478.5785
variable kappa_inst equal (0.5*(abs(f_hot)+abs(f_cold))/(time-20000)/(ly*lz)/2.0)*(lx/2.0)/v_tdiff*69478.5785
variable kappa equal (0.5*(abs(f_hot)+abs(f_cold))/(time-${start_time})/(ly*lz)/2.0)*(lx/2.0)/f_ave*69478.5785
variable kappa equal (0.5*(abs(f_hot)+abs(f_cold))/(time-20000)/(ly*lz)/2.0)*(lx/2.0)/f_ave*69478.5785

# 3e - thermo out
# dump dump_tc all custom 1000 dump.tc_x_ehex.lammpstrj id type mol x y z ix iy iz vx vy vz
thermo_style custom step time v_kappa v_kappa_inst c_Thot c_Tcold v_tdiff f_ave temp press enthalpy etotal ke pe
WARNING: New thermo_style command, previous thermo_modify settings will be lost (src/output.cpp:904)
thermo_modify colname v_kappa kappa colname v_kappa_inst kappa_inst               colname c_Thot Temp_hot colname c_Tcold Temp_cold               colname v_tdiff dTemp_step colname f_ave dTemp
thermo_modify flush yes
thermo ${tLog}
thermo 1000

# 2g - md run for kappa calculation
# optional traj dump
if "${boolDump} == 1" then     "dump tc_dump all atom ${tDump} dump.tc_x.lammpstrj"
run ${tTCrun}
run 1000000
PPPM initialization ...
  using 12-bit tables for long-range coulomb (src/kspace.cpp:342)
  G vector (1/distance) = 0.23713698
  grid = 45 36 36
  stencil order = 5
  estimated absolute RMS force accuracy = 0.00028675184
  estimated relative force accuracy = 8.6354464e-07
  using double precision FFTW3
  3d grid and FFT values/proc = 7200 3240
Generated 10 of 10 mixed pair_coeff terms from arithmetic mixing rule
Per MPI rank memory allocation (min/avg/max) = 18.94 | 19.03 | 19.48 Mbytes
   Step          Time          kappa        kappa_inst      Temp_hot      Temp_cold      dTemp_step       dTemp           Temp          Press         Enthalpy        TotEng         KinEng         PotEng    
     21000   21000          0              0              338.72524      239.58275      99.142489      95.922342      297.16637     -157.48759      55453.499      56232.248      28362.318      27869.93     
     22000   22000          0.31938945     0.29320662     354.04924      248.84545      105.20379      96.579419      299.74965      277.70242      57964.033      56590.843      28608.873      27981.969    
     23000   23000          0.10956221     0.11043576     346.53615      249.81287      96.723285      97.494467      298.72697      268.89284      57681.994      56352.366      28511.266      27841.1      
     24000   24000          0.22945886     0.23540583     343.18558      248.2575       94.928081      97.388367      297.25359     -656.74084      53043.765      56291.233      28370.643      27920.59     
     25000   25000          0.19868442     0.203225       344.40643      249.43924      94.967187      97.137494      297.98138     -30.510678      56233.039      56383.909      28440.105      27943.805    
     26000   26000          0.22037573     0.21838227     350.24543      251.81454      98.430893      97.540514      298.42694     -603.21241      53352.428      56335.207      28482.631      27852.577    
     27000   27000          0.30012421     0.27976141     349.76206      244.93502      104.82704      97.714747      297.80807     -15.814647      56337.029      56415.229      28423.564      27991.666    
     28000   28000          0.32614589     0.29064496     358.06016      247.60153      110.45863      98.435228      300.35289     -82.555207      56106.766      56514.987      28666.448      27848.539    
     29000   29000          0.30260103     0.33028259     339.48269      249.69431      89.788379      98.002107      300.03774     -153.24832      55594.659      56352.445      28636.369      27716.076    
     30000   30000          0.29591299     0.29627178     348.18424      250.33129      97.85295       97.971594      300.43926      30.367264      56692.95       56542.789      28674.691      27868.098    
     31000   31000          0.29478405     0.32554977     341.11251      252.12169      88.990824      98.278527      297.84447     -214.06729      55356.337      56414.862      28427.037      27987.824    
     32000   32000          0.28578181     0.30315745     344.81552      252.23318      92.582339      98.211379      300.02594     -510.74267      53893.067      56418.6        28635.243      27783.356    
     33000   33000          0.28029214     0.29504263     347.9091       254.64591      93.263182      98.171195      300.80169     -116.81777      55937.353      56514.996      28709.283      27805.714    
     34000   34000          0.27974676     0.29186867     344.63633      250.41166      94.22467       98.307585      299.50896     -654.41122      53325.493      56561.442      28585.901      27975.541    
     35000   35000          0.28777299     0.26402741     354.77908      247.8041       106.97498      98.147947      300.22645      214.69958      57667.118      56605.466      28654.38       27951.086    
     36000   36000          0.28782628     0.29331311     344.11163      247.65375      96.457884      98.296662      300.49867     -260.70002      55371.508      56660.623      28680.361      27980.262    
     37000   37000          0.2887801      0.253813       352.83838      241.16095      111.67743      98.154909      299.97381     -28.376799      56289.124      56429.442      28630.267      27799.175    
     38000   38000          0.2817783      0.26262561     360.09964      254.37611      105.72353      98.537419      299.22443      31.920237      56493.879      56336.039      28558.744      27777.294    
     39000   39000          0.28833903     0.26796144     355.76949      249.78946      105.98003      98.490174      300.36994      216.5758       57576.338      56505.409      28668.075      27837.334    
     40000   40000          0.28109703     0.31106374     342.03195      252.98763      89.044323      98.537006      299.73918     -357.41381      54696.077      56463.425      28607.874      27855.552    
     41000   41000          0.28210121     0.28828742     344.69743      248.21905      96.47838       98.594059      297.71115     -714.0098       53095.474      56626.127      28414.313      28211.814    
     42000   42000          0.2927962      0.2500648      357.95774      242.31123      115.64651      98.768773      300.18318      64.034513      57006.989      56690.349      28650.251      28040.099    
     43000   43000          0.28050076     0.29278698     344.59457      249.94875      94.645812      98.791394      300.3607      -578.73874      53789.363      56651.125      28667.193      27983.932    
     44000   44000          0.28299575     0.29892298     344.14507      250.68254      93.462526      98.722673      300.04432     -183.77354      55675.628      56584.356      28636.997      27947.359    
     45000   45000          0.27852692     0.24077143     361.27127      247.05248      114.21879      98.735956      300.91238     -604.77875      53752.868      56743.392      28719.847      28023.545    
     46000   46000          0.282936       0.25558594     354.34756      244.99846      109.3491       98.778843      300.7425       297.72799      58110.915      56638.702      28703.633      27935.069    
     47000   47000          0.25971842     0.30693052     343.69907      260.12738      83.571688      98.763507      300.04451     -390.64393      54487.481      56419.146      28637.015      27782.131    
     48000   48000          0.27535193     0.27646249     347.04084      248.63931      98.401528      98.798408      298.06122     -72.409366      56143.684      56501.736      28447.725      28054.01     
     49000   49000          0.27197772     0.22955892     357.67477      240.45026      117.22451      98.941679      299.64948      507.98908      59086.726      56574.809      28599.313      27975.497    
     50000   50000          0.27795375     0.23318373     362.7526       244.75894      117.99367      98.988421      297.8035       248.61147      57797.937      56568.597      28423.127      28145.47     
     51000   51000          0.27409553     0.27709742     345.84541      248.03032      97.815095      98.886367      298.96133     -442.04755      54449.878      56635.725      28533.634      28102.091    
     52000   52000          0.27685648     0.28733034     351.2655       255.92212      95.343381      98.950353      299.52122      137.65008      57208.239      56527.584      28587.071      27940.513    
     53000   53000          0.26907709     0.30780846     352.73921      266.34232      86.396892      98.832994      301.33472      302.47771      58182.583      56686.884      28760.156      27926.729    
     54000   54000          0.26930838     0.28053419     346.37226      251.55563      94.816622      98.768944      298.63985     -83.89086       56141.012      56555.837      28502.951      28052.887    
     55000   55000          0.26632624     0.31545294     341.72403      258.38312      83.340904      98.714017      299.60802      68.424804      56900.766      56562.417      28595.356      27967.061    
     56000   56000          0.26978871     0.26716092     352.19779      252.44295      99.75484       98.783209      298.52812      143.35046      57136.716      56427.873      28492.287      27935.586    
     57000   57000          0.27693838     0.278615       346.6526       248.48087      98.171732      98.766079      299.67594     -272.60679      55104.531      56452.524      28601.838      27850.686    
     58000   58000          0.27142943     0.32765433     340.07049      258.25493      81.815559      98.763139      298.31313      463.18579      58799.434      56509.062      28471.768      28037.294    
     59000   59000          0.27725989     0.27239678     348.08388      247.47895      100.60493      98.84033       298.67253     -310.94476      54882.158      56419.725      28506.07       27913.655    
     60000   60000          0.27686653     0.26672166     356.62584      254.07541      102.55043      98.792804      299.70355     -680.71055      53201.573      56567.567      28604.473      27963.094    
     61000   61000          0.27538394     0.28500902     347.76509      252.29671      95.468389      98.805153      299.80799      407.85333      58464.129      56447.366      28614.441      27832.925    
     62000   62000          0.28552728     0.25758677     357.80384      248.22245      109.58139      98.858213      299.89498     -292.15129      55173.857      56618.494      28622.744      27995.75     
     63000   63000          0.28820631     0.34788927     338.01812      256.18018      81.83794       98.785279      300.31332      456.58169      58817.346      56559.629      28662.672      27896.958    
     64000   64000          0.28257729     0.3058901      349.90896      258.62281      91.286154      98.817322      300.42512      144.82478      57308.723      56592.59       28673.341      27919.248    
     65000   65000          0.27886536     0.31293399     338.87146      250.9116       87.959859      98.705803      300.08402      159.09764      57209.608      56422.898      28640.786      27782.112    
     66000   66000          0.2799237      0.28438582     344.49334      247.39847      97.094871      98.642609      300.28574     -414.17171      54310.929      56358.935      28660.038      27698.897    
     67000   67000          0.28660602     0.28272271     348.17408      248.1233       100.05078      98.695163      298.87703      28.958487      56548.404      56405.209      28525.588      27879.621    
     68000   68000          0.27720038     0.28177129     356.32713      259.27657      97.050556      98.650875      299.34647      53.887177      56717.032      56450.569      28570.392      27880.177    
     69000   69000          0.28463085     0.27503158     351.80264      249.69107      102.11157      98.667825      300.48131     -197.02607      55565.388      56539.647      28678.705      27860.943    
     70000   70000          0.27891582     0.29153591     342.80512      248.38809      94.417031      98.689113      300.98688      64.496849      56965.617      56646.691      28726.958      27919.733    
     71000   71000          0.28816799     0.28186813     354.60833      253.79117      100.81715      98.613113      298.89769     -839.95952      52418.4        56571.853      28527.56       28044.293    
     72000   72000          0.28417614     0.27907989     351.86382      251.48873      100.37509      98.575019      299.93267     -12.904561      56531.606      56595.417      28626.341      27969.076    
     73000   73000          0.2877091      0.2770444      356.50035      254.06966      102.4307       98.633833      297.49492      12.817271      56688.274      56624.895      28393.676      28231.219    
     74000   74000          0.28651042     0.28139476     356.97974      256.48537      100.49438      98.700044      299.77195     -117.47762      56238.576      56819.482      28611.002      28208.481    
     75000   75000          0.28823851     0.30719444     348.91924      256.31034      92.608897      98.699296      299.90149     -554.91529      53981.95       56725.909      28623.365      28102.544    
     76000   76000          0.28944489     0.28685962     358.81563      259.19904      99.616593      98.726834      301.34857     -471.45577      54520.505      56851.771      28761.478      28090.292    
     77000   77000          0.28532417     0.30619734     353.38386      261.36495      92.018914      98.750647      301.34184     -226.26392      55745.067      56863.902      28760.836      28103.067    
     78000   78000          0.2886885      0.2880684      352.50354      253.53986      98.963684      98.75111       301.12428     -621.69604      53752.583      56826.76       28740.071      28086.689    
     79000   79000          0.28602394     0.28192456     346.89208      246.66104      100.23104      98.794503      300.91696     -468.20993      54497.737      56812.953      28720.284      28092.668    
     80000   80000          0.28486017     0.29592794     344.75131      249.61654      95.134772      98.831078      299.66031      629.37738      59767.863      56655.702      28600.347      28055.356    
     81000   81000          0.28673502     0.28452471     345.79024      246.29622      99.494014      98.727059      300.16644     -64.816896      56410.983      56731.491      28648.652      28082.839    
     82000   82000          0.28471964     0.30105601     341.25701      247.86128      93.39573       98.7545        300.07238      440.54805      58836.613      56658.181      28639.675      28018.505    
     83000   83000          0.2812121      0.28073124     347.28327      248.35879      98.924482      98.755328      300.89276     -103.21225      56223.617      56733.984      28717.974      28016.009    
     84000   84000          0.27911414     0.30543374     338.72855      248.54839      90.180168      98.683879      301.75502     -328.90095      55093.731      56720.088      28800.271      27919.817    
     85000   85000          0.28073866     0.27580667     354.32128      253.89776      100.42352      98.659287      300.59655      238.54695      57899.992      56720.42       28689.704      28030.716    
     86000   86000          0.28439235     0.22928817     361.68062      239.27514      122.40548      98.68806       299.79329     -389.0694       54860.787      56784.666      28613.038      28171.628    
     87000   87000          0.28040023     0.28800751     353.13366      257.0251       96.108565      98.716         301.98054     -61.397724      56493.318      56796.919      28821.795      27975.124    
     88000   88000          0.28124739     0.27989137     356.97335      257.76006      99.21329       98.734937      300.28209     -468.22234      54551.972      56867.249      28659.691      28207.558    
     89000   89000          0.28060782     0.28046332     346.45768      247.67742      98.780258      98.729391      299.09114      37.31172       56893.492      56708.992      28546.024      28162.969    
     90000   90000          0.2827785      0.25880251     365.16117      257.25497      107.9062       98.757141      300.44899     -526.48156      54292.26       56895.618      28675.62       28219.999    
     91000   91000          0.27947044     0.28545618     350.82347      254.0927       96.730761      98.802556      300.89079     -174.08247      55902.112      56762.92       28717.787      28045.133    
     92000   92000          0.28164547     0.29413013     347.00789      252.37304      94.634856      98.829792      299.00652     -71.581014      56373.095      56727.05       28537.947      28189.104    
     93000   93000          0.28488978     0.26098305     357.73969      249.91559      107.8241       98.775965      301.60606      19.314972      56883.255      56787.745      28786.053      28001.692    
     94000   94000          0.28322704     0.24725256     362.7807       249.57911      113.2016       98.82314       302.13789     -123.71349      56084.474      56696.216      28836.813      27859.403    
     95000   95000          0.28487146     0.32575714     346.17457      259.70438      86.470193      98.880677      301.91205     -91.877634      56534.098      56988.417      28815.258      28173.159    
     96000   96000          0.28080841     0.33112634     337.93031      254.08451      83.845803      98.870094      300.42056     -794.74345      52922.443      56852.309      28672.906      28179.403    
     97000   97000          0.28090802     0.31062328     341.78379      252.40682      89.376979      98.83153       299.36517      246.53631      58009.929      56790.85       28572.177      28218.673    
     98000   98000          0.27964242     0.27782463     349.65226      250.14072      99.511537      98.86467       301.86838      389.12201      58651.724      56727.584      28811.09       27916.494    
     99000   99000          0.27740617     0.29481379     345.92623      252.8933       93.032934      98.870879      299.0334      -262.41959      55338.413      56636.032      28540.512      28095.52     
    100000   100000         0.28324961     0.24307145     362.61285      247.41148      115.20136      98.860371      299.66905      169.53879      57526.056      56687.717      28601.18       28086.536    
    101000   101000         0.28036684     0.26512691     354.84788      250.30675      104.54113      98.858578      301.45144     -184.20056      55815.48       56726.32       28771.297      27955.023    
    102000   102000         0.28114946     0.2536312      356.72905      247.10494      109.62411      98.894356      299.75322      103.17435      57132.816      56622.637      28609.214      28013.424    
    103000   103000         0.27424677     0.3024558      337.84931      248.17258      89.676728      98.900878      299.7674      -435.05325      54559.607      56710.869      28610.567      28100.303    
    104000   104000         0.27567563     0.27542323     344.82971      245.86579      98.963922      98.873315      300.24051     -213.52439      55591.289      56647.129      28655.722      27991.408    
    105000   105000         0.2783956      0.29841166     350.37448      258.11223      92.262248      98.89571       299.35006      659.04489      60007.333      56748.472      28570.735      28177.737    
    106000   106000         0.27542799     0.29876787     341.88113      250.72359      91.157538      98.882265      300.41532     -626.27902      53505.643      56602.482      28672.406      27930.076    
    107000   107000         0.27788222     0.28520332     343.67843      247.35522      96.323212      98.860949      301.84673     -382.83965      54575.325      56468.4        28809.024      27659.376    
    108000   108000         0.27961693     0.26000674     356.63681      250.31779      106.31902      98.862622      300.10702     -665.46345      53326.893      56617.493      28642.981      27974.512    
    109000   109000         0.27680846     0.27429354     347.95188      248.16934      99.782537      98.875971      301.07402      164.3757       57498.172      56685.363      28735.274      27950.089    
    110000   110000         0.2768566      0.31160003     343.79958      255.9573       87.842279      98.865826      300.4934       645.54417      59782.316      56590.214      28679.859      27910.355    
    111000   111000         0.27971177     0.31756103     336.37847      249.2991       87.079367      98.862529      298.36308      1.0015433      56791.841      56786.888      28476.536      28310.353    
    112000   112000         0.2800883      0.27224445     346.79309      245.10187      101.69122      98.843365      298.91693     -62.012094      56408.091      56714.73       28529.396      28185.334    
    113000   113000         0.27750588     0.2703035      354.43188      252.96814      101.46374      98.830352      300.50784     -56.326339      56483.648      56762.171      28681.237      28080.935    
    114000   114000         0.27576327     0.25321644     360.95401      253.34156      107.61245      98.813892      300.13103     -352.68781      54965.372      56709.351      28645.273      28064.078    
    115000   115000         0.27535878     0.29085936     348.47898      254.93088      93.548102      98.814139      301.95784     -167.80155      55784.145      56613.894      28819.629      27794.265    
    116000   116000         0.27358706     0.3169772      335.95255      250.67332      85.27923       98.804277      298.7097      -591.66235      53534.703      56460.369      28509.618      27950.751    
    117000   117000         0.27419598     0.3044994      347.82867      258.90274      88.925927      98.753788      299.4303      -686.11815      53089.586      56482.319      28578.394      27903.925    
    118000   118000         0.27495197     0.29905655     340.94992      250.16614      90.783785      98.74265       298.24449      147.7074       57192.898      56462.511      28465.217      27997.295    
    119000   119000         0.27786063     0.26340498     352.16839      247.97868      104.18971      98.769264      300.85923     -61.829127      56365.91       56671.644      28714.774      27956.87     
    120000   120000         0.28030639     0.30063057     340.51447      248.40335      92.111117      98.789817      300.87761     -120.70199      56080.359      56677.209      28716.528      27960.681    
    121000   121000         0.27582411     0.34639733     329.11627      250.45077      78.665505      98.793106      298.41371     -89.561         56078.96       56521.823      28481.368      28040.456    
    122000   122000         0.27733815     0.26540101     352.05956      248.83022      103.22934      98.786158      300.82949      0.19718945     56673.787      56672.812      28711.936      27960.876    
    123000   123000         0.27583496     0.25448447     355.34146      248.27534      107.06612      98.778866      300.50938     -227.87214      55524.713      56651.5        28681.384      27970.116    
    124000   124000         0.27557457     0.28580923     345.51208      250.26248      95.249605      98.787114      300.5924      -129.4039       56086.628      56726.507      28689.307      28037.2      
    125000   125000         0.27572785     0.3049948      347.47944      258.16394      89.3155        98.795835      298.80329     -267.37809      55390.936      56713.074      28518.55       28194.524    
    126000   126000         0.27450944     0.29713349     339.668        248.36993      91.298067      98.822515      300.62562     -273.47981      55189.459      56541.769      28692.478      27849.291    
    127000   127000         0.27401771     0.24959795     350.65794      242.13226      108.52569      98.854155      300.50112     -174.84407      55717.513      56582.086      28680.595      27901.491    
    128000   128000         0.27832406     0.23447611     358.49776      241.10444      117.39332      98.898845      300.0599      -466.93359      54238.775      56547.68       28638.485      27909.195    
    129000   129000         0.27708831     0.2642975      354.22875      250.54047      103.68828      98.901869      298.97468      67.801211      56856.635      56521.369      28534.908      27986.462    
    130000   130000         0.27551358     0.26622202     353.53831      251.19593      102.34238      98.890928      299.91397      252.69631      57715.918      56466.38       28624.556      27841.823    
    131000   131000         0.27430991     0.26438435     354.86765      252.26098      102.60667      98.893976      299.20666      318.18363      58095.758      56522.396      28557.049      27965.347    
    132000   132000         0.27416855     0.23743676     359.6132       245.40314      114.21006      98.908744      300.43054      749.53168      60200.502      56494.199      28673.859      27820.34     
    133000   133000         0.27380144     0.27435426     348.73683      249.98911      98.747723      98.9471        297.51951      100.18569      56807.882      56312.482      28396.023      27916.459    
    134000   134000         0.27487261     0.24649331     361.23608      250.92209      110.31399      98.924593      299.84585     -73.482613      55968.135      56331.494      28618.055      27713.439    
    135000   135000         0.27183534     0.26274369     350.59329      248.2423       102.35099      98.927815      296.83643     -312.29114      54754.006      56298.231      28330.828      27967.403    
    136000   136000         0.27067235     0.28734978     339.12952      245.94217      93.18735       98.929073      297.32631     -64.16734       55900.244      56217.54       28377.583      27839.957    
    137000   137000         0.27472847     0.25951375     358.27576      253.59602      104.67973      98.88247       299.18852     -51.230953      56105.057      56358.385      28555.318      27803.067    
    138000   138000         0.27536033     0.29176252     338.43816      245.09287      93.345288      98.905519      299.03557      17.819642      56519.679      56431.564      28540.719      27890.845    
    139000   139000         0.27266264     0.31565646     342.09402      256.67599      85.418023      98.886851      301.20422     -155.75147      55667.273      56437.437      28747.701      27689.735    
    140000   140000         0.27530542     0.23877973     360.1149       246.0762       114.0387       98.908805      298.47255      480.23955      58870.473      56495.772      28486.983      28008.789    
    141000   141000         0.2745955      0.30267299     346.22535      256.54217      89.683177      98.853315      301.10289     -538.53082      53895.904      56558.844      28738.03       27820.814    
    142000   142000         0.27402064     0.26372718     349.31065      246.61074      102.69991      98.84204       300.34858     -219.42667      55339.246      56424.272      28666.036      27758.236    
    143000   143000         0.27475999     0.29208408     350.22478      257.26537      92.959406      98.820656      299.77673      23.746427      56490.39       56372.968      28611.458      27761.51     
    144000   144000         0.27564898     0.29062894     346.34354      252.61105      93.732487      98.826317      298.25808      291.19763      57612.493      56172.572      28466.514      27706.058    
    145000   145000         0.27559271     0.2935936      344.47236      251.73128      92.741079      98.79865       297.43708      155.28258      57211.606      56443.761      28388.156      28055.605    
    146000   146000         0.27385607     0.25810037     350.237        245.4074       104.8296       98.798463      298.75756     -292.19274      54803.79       56248.632      28514.185      27734.447    
    147000   147000         0.27106137     0.27903555     343.48933      247.50962      95.979711      98.803277      298.81026      359.55334      58112.921      56334.993      28519.215      27815.778    
    148000   148000         0.27056753     0.29193927     345.03576      253.48261      91.553148      98.784801      296.97123     -93.377353      55838.026      56299.761      28343.693      27956.068    
    149000   149000         0.27302115     0.27561095     346.58144      248.71651      97.86493       98.793249      298.92642     -337.00114      54545.303      56211.714      28530.302      27681.412    
    150000   150000         0.27382631     0.27189144     352.80706      253.30221      99.504849      98.801742      298.65903      101.89991      56669.912      56166.035      28504.782      27661.253    
    151000   151000         0.27339194     0.30952552     343.63972      256.39012      87.249595      98.781172      299.75079      62.93015       56626.041      56314.863      28608.982      27705.881    
    152000   152000         0.27218165     0.29324914     345.91986      254.23523      91.684637      98.781238      296.90456      463.18577      58441.259      56150.887      28337.33       27813.557    
    153000   153000         0.27232303     0.28504132     349.52523      255.15141      94.373822      98.781357      299.33446     -194.64028      55362.688      56325.15       28569.246      27755.904    
    154000   154000         0.2737061      0.2493882      357.27093      248.86708      108.40385      98.772518      298.8471       357.8225       58204.792      56435.423      28522.731      27912.691    
    155000   155000         0.27283715     0.23512133     356.51216      241.88104      114.63112      98.785012      296.18824      191.15658      57247.987      56302.751      28268.963      28033.788    
    156000   156000         0.27060168     0.27732109     343.56472      247.18387      96.380851      98.774121      296.82877      570.11378      58927.892      56108.78       28330.097      27778.683    
    157000   157000         0.27216065     0.25624551     356.83311      251.92733      104.90578      98.771204      299.28751     -313.36799      54806.161      56355.711      28564.765      27790.946    
    158000   158000         0.2708819      0.26158425     358.00111      255.7281       102.273        98.76262       298.1412       52.427463      56453.793      56194.548      28455.359      27739.189    
    159000   159000         0.27077003     0.28786571     341.65253      248.74025      92.912279      98.778506      298.26563      187.80805      57085.526      56156.849      28467.235      27689.614    
    160000   160000         0.27189066     0.24153473     355.83996      244.62827      111.21168      98.795172      298.29553      52.04918       56419.077      56161.703      28470.088      27691.614    
    161000   161000         0.26754784     0.28779696     340.99479      249.17338      91.821412      98.770833      298.71096     -206.782        55001.543      56024.043      28509.738      27514.306    
    162000   162000         0.26950294     0.26578425     350.86363      250.75022      100.11341      98.732015      297.84819     -538.34405      53550.693      56212.71       28427.393      27785.317    
    163000   163000         0.26958822     0.26920823     354.49995      255.63019      98.86976       98.7304        297.55927      351.16914      58023.822      56287.352      28399.817      27887.535    
    164000   164000         0.26791819     0.28915314     350.04085      258.57632      91.464522      98.713916      298.57535     -334.23376      54710.95       56363.677      28496.795      27866.882    
    165000   165000         0.27099659     0.25199919     352.03248      245.87512      106.15736      98.715514      299.96002      34.241099      56623.229      56453.913      28628.952      27824.961    
    166000   166000         0.26945279     0.31753362     343.62602      259.87377      83.752252      98.696904      299.3507      -92.850497      56070.386      56529.516      28570.796      27958.72     
    167000   167000         0.27087247     0.27505578     353.58095      256.39036      97.190593      98.691591      299.44928      180.76466      57353.504      56459.654      28580.205      27879.449    
    168000   168000         0.26846271     0.27377536     344.13783      247.35171      96.786117      98.701431      298.32787     -730.58345      52659.523      56272.13       28473.175      27798.955    
    169000   169000         0.27053608     0.26475992     342.29215      241.43758      100.85457      98.701246      297.62056     -47.332713      56024.096      56258.148      28405.667      27852.481    
    170000   170000         0.2682722      0.27555213     347.61996      251.52508      96.094884      98.702547      297.62102     -698.10346      52731.494      56183.493      28405.711      27777.782    
    171000   171000         0.27070561     0.29192872     349.22857      257.69174      91.536831      98.71325       297.92542      706.4849       59886.958      56393.514      28434.764      27958.751    
    172000   172000         0.27045244     0.23358893     360.93541      246.61242      114.32299      98.740407      298.85655     -66.210709      56162.14       56489.54       28523.633      27965.907    
    173000   173000         0.26983713     0.26994647     349.38277      250.66898      98.713795      98.753794      299.13384     -150.14837      55591.507      56333.964      28550.099      27783.866    
    174000   174000         0.26916076     0.29030738     340.26198      248.7118       91.550181      98.742822      299.38377     -12.779297      56224.455      56287.646      28573.952      27713.694    
    175000   175000         0.27198375     0.28396337     348.75947      254.18036      94.579113      98.744884      298.82736     -86.041198      56067.873      56493.332      28520.848      27972.484    
    176000   176000         0.27216766     0.26366223     350.93402      249.01907      101.91495      98.730035      299.23038      552.40423      59140.142      56408.6        28559.313      27849.288    
    177000   177000         0.27071998     0.2954515      335.10996      244.661        90.448962      98.711893      297.86757      413.4928       58372.739      56328.09       28429.242      27898.848    
    178000   178000         0.27158346     0.28318922     347.61737      252.94112      94.676248      98.722112      299.8054       63.086716      56764.977      56453.025      28614.194      27838.831    
    179000   179000         0.2697896      0.28641633     344.40909      251.41802      92.991074      98.721975      298.70503     -211.13288      55390.128      56434.143      28509.172      27924.971    
    180000   180000         0.27060293     0.30437998     345.66286      257.91252      87.750332      98.703454      301.28825     -166.30337      55802.82       56625.161      28755.721      27869.44     
    181000   181000         0.27161205     0.29995839     337.53002      248.14999      89.380031      98.708032      299.91892     -101.63402      55864.479      56367.042      28625.029      27742.013    
    182000   182000         0.27167838     0.24263573     362.53818      251.99637      110.54181      98.724792      299.26933      74.772173      56714.189      56344.454      28563.031      27781.424    
    183000   183000         0.27161236     0.26967429     350.29739      250.88079      99.416597      98.707217      297.7869      -301.48801      54627.729      56118.534      28421.543      27696.991    
    184000   184000         0.27102089     0.29717254     345.37408      255.34797      90.026106      98.713004      298.08911     -203.45632      55424.443      56430.499      28450.387      27980.113    
    185000   185000         0.27005588     0.27908985     343.20428      247.68219      95.522091      98.717519      299.69793      620.0457       59283.851      56217.834      28603.936      27613.898    
    186000   186000         0.27041522     0.31980934     344.77229      261.31383      83.458453      98.702998      298.0941      -530.06191      53723.031      56344.094      28450.864      27893.231    
    187000   187000         0.27129742     0.27570753     349.32926      252.21747      97.111793      98.690407      299.91869     -175.08627      55638.689      56504.459      28625.007      27879.453    
    188000   188000         0.27256003     0.25716484     349.49614      244.90578      104.59036      98.682713      298.93646     -814.08526      52411.401      56436.909      28531.26       27905.649    
    189000   189000         0.27150182     0.28313595     343.83195      249.19314      94.638806      98.694177      298.83363      134.35313      57002.701      56338.348      28521.446      27816.902    
    190000   190000         0.26976236     0.28687527     351.68539      258.87759      92.807796      98.695243      299.7076      -186.52492      55433.266      56355.599      28604.86       27750.739    
    191000   191000         0.27053491     0.2585958      350.82137      247.58016      103.24121      98.68502       297.31793     -343.98957      54613.659      56314.626      28376.784      27937.843    
    192000   192000         0.26968412     0.31291806     344.52188      259.44625      85.075628      98.714377      298.66603     -2.6077553      56381.642      56394.537      28505.45       27889.087    
    193000   193000         0.26974344     0.24782539     352.68718      245.22719      107.46         98.728317      299.16173     -433.45426      54156.147      56299.502      28552.761      27746.741    
    194000   194000         0.26849873     0.26512005     352.27019      252.29         99.98019       98.722079      297.91014      66.062889      56588.62       56261.951      28433.305      27828.646    
    195000   195000         0.26836383     0.2440358      352.64834      244.06487      108.58348      98.740039      298.72713      3.9150224      56376.04       56356.681      28511.281      27845.4      
    196000   196000         0.26652581     0.31917489     341.36389      258.92003      82.443851      98.729678      298.96925     -202.55681      55380.345      56381.953      28534.39       27847.563    
    197000   197000         0.26689303     0.29140022     344.38882      253.98308      90.405739      98.707157      298.14325      158.87546      57063.691      56278.08       28455.554      27822.526    
    198000   198000         0.26726574     0.2540447      353.71755      249.8825       103.83505      98.698562      298.34596     -308.86468      54692.722      56220.004      28474.902      27745.102    
    199000   199000         0.26885603     0.25561586     353.31887      249.51297      103.8059       98.693841      299.4368      -170.48311      55440.155      56283.164      28579.014      27704.15     
    200000   200000         0.26892064     0.27122947     341.68306      243.83194      97.851114      98.691218      298.41104     -32.438592      56073.928      56234.331      28481.113      27753.219    
    201000   201000         0.26935898     0.22145543     372.205        252.14886      120.05614      98.70502       300.92507     -362.43237      54860.764      56652.928      28721.058      27931.87     
    202000   202000         0.2675104      0.2886803      351.67941      260.2212       91.458214      98.695917      299.90535      177.24152      57412.362      56535.934      28623.733      27912.201    
    203000   203000         0.26797911     0.28550457     345.6031       252.99218      92.610924      98.667548      298.703       -100.27961      55986.178      56482.043      28508.978      27973.065    
    204000   204000         0.26899561     0.23542111     364.19468      251.46495      112.72973      98.659447      300.79382     -15.87197       56408.76       56487.244      28708.532      27778.712    
    205000   205000         0.26880299     0.25306411     356.89217      252.08262      104.80954      98.672761      300.76548     -26.417203      56330.88       56461.509      28705.826      27755.683    
    206000   206000         0.26796066     0.28736202     340.43818      248.44687      91.991307      98.651823      299.06521     -97.418768      55823.135      56304.853      28543.549      27761.305    
    207000   207000         0.2688412      0.27326755     346.92557      249.83342      97.092147      98.690727      300.32476      492.46702      58889.896      56454.733      28663.763      27790.97     
    208000   208000         0.2681575      0.29927143     336.17828      247.76224      88.416041      98.674828      297.97448      313.71941      57987.154      56435.867      28439.447      27996.42     
    209000   209000         0.26733133     0.30835118     343.37039      257.82042      85.549969      98.676926      299.19942     -577.56704      53508.062      56364.029      28556.358      27807.671    
    210000   210000         0.26824227     0.25908577     354.32042      252.14077      102.17965      98.69173       299.22614     -242.54865      55196.843      56396.203      28558.908      27837.296    
    211000   211000         0.26725101     0.25364992     355.74425      251.74666      103.9976       98.704891      299.44167      410.45639      58457.268      56427.633      28579.479      27848.154    
    212000   212000         0.26704856     0.32188781     334.37173      252.49058      81.881147      98.695696      299.8809       292.78097      57807.468      56359.718      28621.4        27738.318    
    213000   213000         0.26717093     0.27093271     353.54935      256.21923      97.330112      98.700524      298.87656      75.623463      56759.502      56385.557      28525.543      27860.014    
    214000   214000         0.26609368     0.28153181     352.49046      259.21347      93.276994      98.688706      297.78933     -136.5263       55800.17       56475.269      28421.775      28053.493    
    215000   215000         0.26709058     0.26500955     348.53379      249.09371      99.440079      98.665295      298.58775     -241.47023      54964.085      56158.113      28497.978      27660.135    
    216000   216000         0.2661766      0.26379951     357.94548      258.40225      99.543232      98.65426       298.63682     -5.211556       56251.809      56277.579      28502.662      27774.917    
    217000   217000         0.26700263     0.26936533     347.59504      249.8059       97.789139      98.654474      298.70229      294.30134      57627.026      56171.758      28508.91       27662.848    
    218000   218000         0.26737792     0.25649172     349.16228      246.32018      102.84211      98.654924      297.14777     -292.49175      54750.925      56197.245      28360.543      27836.702    
    219000   219000         0.26817384     0.2759879      352.36718      256.50344      95.863744      98.657025      298.19539     -243.33602      55100.612      56303.866      28460.531      27843.335    
    220000   220000         0.2683204      0.26913186     348.81452      250.43648      98.378041      98.675555      297.78858      184.04481      57205.459      56295.39       28421.704      27873.686    
    221000   221000         0.26842546     0.27964679     352.56083      257.85052      94.710315      98.66961       298.74551      250.95103      57590.888      56349.979      28513.035      27836.944    
    222000   222000         0.26939492     0.26622955     348.35066      248.51879      99.831874      98.658857      299.51883      28.214451      56500.084      56360.568      28586.843      27773.725    
    223000   223000         0.26902486     0.28833452     341.20444      249.16268      92.041757      98.648188      298.06263     -280.58909      55086.213      56473.677      28447.859      28025.818    
    224000   224000         0.26943343     0.26478196     350.45697      250.0586       100.39838      98.665109      298.68366     -119.488        55579.687      56170.534      28507.132      27663.402    
    225000   225000         0.26943741     0.26740256     345.94124      246.52903      99.412213      98.661431      297.64932     -37.659266      56184.944      56371.163      28408.412      27962.75     
    226000   226000         0.26926859     0.27497854     353.25924      256.64665      96.61259       98.6613        298.45602      71.642628      56472.294      56118.034      28485.406      27632.628    
    227000   227000         0.26876085     0.27178729     342.14228      244.55177      97.590504      98.689442      297.35845     -640.35693      53101.226      56267.678      28380.651      27887.028    
    228000   228000         0.27028374     0.25854669     356.04619      252.88148      103.16471      98.684796      297.44432     -101.13403      55789.297      56289.387      28388.846      27900.541    
    229000   229000         0.27115103     0.24622207     354.69333      245.99431      108.69902      98.705497      297.49347     -465.20873      53849.651      56150.026      28393.537      27756.489    
    230000   230000         0.26955402     0.27884703     350.7789       255.36797      95.410931      98.700268      297.71257     -61.373855      56080.702      56384.185      28414.449      27969.736    
    231000   231000         0.26967186     0.27981782     345.24676      250.11374      95.133019      98.712243      299.56656      149.22478      57093.771      56355.881      28591.399      27764.482    
    232000   232000         0.26892108     0.25937924     353.59013      251.25329      102.33684      98.705734      297.24793      128.62865      56801.197      56165.151      28370.103      27795.048    
    233000   233000         0.26953683     0.25123924     351.7002       245.81322      105.88697      98.698802      296.38511     -125.44999      55493.904      56114.232      28287.753      27826.479    
    234000   234000         0.26971431     0.27802417     347.02926      251.28761      95.741654      98.69144       297.89341      305.0704       57813.32       56304.8        28431.709      27873.092    
    235000   235000         0.26994186     0.27927479     348.68172      253.29666      95.385055      98.682881      298.71994     -277.56972      54889.075      56261.609      28510.595      27751.014    
    236000   236000         0.26948288     0.28447347     346.26089      252.7862       93.474685      98.674425      300.1517      -62.241176      56127.198      56434.97       28647.246      27787.724    
    237000   237000         0.27062538     0.24202105     357.13428      246.79872      110.33556      98.673401      298.40588      21.294293      56438.599      56333.302      28480.62       27852.682    
    238000   238000         0.2694635      0.2430875      358.38159      248.97199      109.4096       98.700224      297.34312     -108.26274      55799.202      56334.542      28379.188      27955.354    
    239000   239000         0.26874493     0.32244896     342.8441       260.59207      82.252028      98.688675      299.61767      104.31682      56845.639      56329.81       28596.277      27733.534    
    240000   240000         0.27018168     0.27490865     354.30634      257.32713      96.97921       98.675911      299.31216      188.61942      57445.415      56512.725      28567.118      27945.608    
    241000   241000         0.27015634     0.25930332     354.59435      251.78213      102.81222      98.681933      300.63321     -171.55957      55581.715      56430.047      28693.202      27736.845    
    242000   242000         0.26940155     0.26054855     353.23407      251.20082      102.03325      98.68026       299.2572      -434.62877      54015.551      56164.714      28561.872      27602.841    
    243000   243000         0.26892447     0.28671891     351.99437      259.42488      92.569486      98.694706      300.13883      188.59213      57324.004      56391.449      28646.018      27745.432    
    244000   244000         0.26902117     0.24707644     355.0869       247.65         107.4369       98.672998      299.39739      241.92016      57476.974      56280.722      28575.253      27705.469    
    245000   245000         0.26964527     0.27020485     350.76312      252.29781      98.465308      98.669645      299.45613     -316.76207      54891.388      56457.721      28580.858      27876.863    
    246000   246000         0.26880374     0.28039728     346.87076      252.26224      94.608516      98.688993      298.44605     -84.11543       56117.47       56533.406      28484.454      28048.952    
    247000   247000         0.26841095     0.23092172     362.7566       248.06281      114.6938       98.674397      299.50211      272.37831      57687.584      56340.721      28585.247      27755.474    
    248000   248000         0.26745234     0.25967022     350.70002      249.06265      101.63737      98.680012      299.7702       320.16297      57993.4        56410.25       28610.835      27799.415    
    249000   249000         0.26742669     0.24001601     352.91768      242.97731      109.94037      98.671711      298.98924      254.0773       57532.62       56276.252      28536.298      27739.955    
    250000   250000         0.26865218     0.26011943     345.12301      243.2058       101.91721      98.680186      299.39404     -158.1379       55658.877      56440.841      28574.933      27865.908    
    251000   251000         0.26725249     0.27705278     344.34661      249.17969      95.166923      98.656747      297.35605      618.82404      59450.778      56390.802      28380.422      28010.38     
    252000   252000         0.26739176     0.28481009     350.60406      257.9922       92.611868      98.644755      300.59087     -200.62904      55379.058      56371.133      28689.162      27681.972    
    253000   253000         0.26778456     0.24246946     359.18663      250.24673      108.9399       98.641232      299.91759     -456.65589      54305.001      56563.084      28624.902      27938.182    
    254000   254000         0.26870643     0.27271386     351.00999      253.82102      97.188964      98.638421      301.28674     -351.87297      54869.372      56609.322      28755.576      27853.746    
    255000   255000         0.26757735     0.28648967     345.64062      253.5017       92.138913      98.651274      299.18969     -23.957668      56266.875      56385.341      28555.429      27829.912    
    256000   256000         0.26779023     0.27935312     340.74723      246.1755       94.571731      98.655235      299.1399       5.92389        56434.631      56405.339      28550.677      27854.661    
    257000   257000         0.26802076     0.24205198     358.00522      248.77908      109.22614      98.643117      299.393       -154.73373      55574.86       56339.991      28574.833      27765.158    
    258000   258000         0.26869892     0.22799146     361.39016      245.12363      116.26653      98.652336      299.86543     -39.996907      56195.705      56393.482      28619.924      27773.558    
    259000   259000         0.26852882     0.29648019     339.01359      249.67084      89.342746      98.642498      298.35813      93.180988      56881.107      56420.343      28476.063      27944.28     
    260000   260000         0.26833724     0.29816924     347.07178      258.29568      88.776098      98.645649      298.02257      214.13218      57423.285      56364.439      28444.036      27920.403    
    261000   261000         0.26906601     0.26402422     346.87318      246.33935      100.53383      98.650013      298.93185      942.84966      61004.875      56342.649      28530.82       27811.829    
    262000   262000         0.27047046     0.24690066     360.22808      252.15857      108.06951      98.651929      299.57222      114.91911      57049.191      56480.937      28591.939      27888.998    
    263000   263000         0.26889157     0.28788371     351.83422      259.68357      92.150649      98.659361      299.80899     -238.92474      55136.544      56317.985      28614.536      27703.448    
    264000   264000         0.26944886     0.27581522     346.09852      249.72948      96.36904       98.645982      297.37994     -179.02342      55400.624      56285.863      28382.702      27903.161    
    265000   265000         0.26929155     0.25130344     355.6344       249.91963      105.71477      98.653249      296.69478     -95.673432      55814.022      56287.11       28317.308      27969.802    
    266000   266000         0.26844838     0.28148077     340.3539       246.27428      94.079628      98.646922      297.04807      214.55892      57056.329      55995.372      28351.027      27644.345    
    267000   267000         0.26863213     0.23704793     357.03331      245.25013      111.78318      98.640365      299.51557      82.667014      56588.853      56180.079      28586.532      27593.547    
    268000   268000         0.26883343     0.28282306     354.96442      261.20822      93.756201      98.635112      297.99155      268.70909      57473.261      56144.542      28441.075      27703.467    
    269000   269000         0.26812459     0.29404715     342.45692      252.51353      89.943391      98.639213      296.98864      297.70216      57458.156      55986.071      28345.355      27640.716    
    270000   270000         0.26774688     0.26736364     355.20045      256.43347      98.766978      98.625607      298.07959      767.70918      60099.803      56303.616      28449.479      27854.137    
    271000   271000         0.26814069     0.28450825     345.52512      252.56626      92.958863      98.633157      298.07963     -409.17362      54155.939      56179.23       28449.482      27729.748    
    272000   272000         0.26879474     0.24308848     365.11673      256.04803      109.0687       98.637882      301.44082      63.46505       56755.182      56441.359      28770.282      27671.076    
    273000   273000         0.26776282     0.26030455     350.07452      248.59991      101.47461      98.648138      298.21042     -180.69205      55509.478      56402.968      28461.965      27941.003    
    274000   274000         0.26784886     0.33699741     333.37584      254.97302      78.402813      98.643484      294.65413     -187.95758      55489.874      56419.291      28122.543      28296.748    
    275000   275000         0.2675948      0.27926262     351.29607      256.75623      94.539837      98.662019      300.94239      193.59664      57540.334      56583.033      28722.711      27860.322    
    276000   276000         0.26819081     0.27513981     348.39838      252.23295      96.165435      98.657142      297.90121      499.21284      58918.921      56450.401      28432.453      28017.948    
    277000   277000         0.26758968     0.2444856      352.20066      244.22949      107.97116      98.648777      297.79765      544.26436      58991.775      56300.483      28422.569      27877.914    
    278000   278000         0.26915386     0.26768643     349.13432      249.94214      99.192186      98.651391      299.58048     -183.27213      55409.826      56316.075      28592.727      27723.347    
    279000   279000         0.26861576     0.26786215     348.70852      249.77509      98.933437      98.655877      300.30564      116.42816      57056.846      56481.129      28661.938      27819.191    
    280000   280000         0.26804869     0.25086746     354.38072      248.95265      105.42807      98.67041       300.67046     -31.582091      56235.161      56391.329      28696.757      27694.572    
    281000   281000         0.26782555     0.27558043     341.7877       245.88782      95.899884      98.676659      298.17441     -212.20542      55263.751      56313.07       28458.528      27854.541    
    282000   282000         0.26854345     0.2587596      348.32444      245.90715      102.41729      98.685919      298.52593      133.05287      57057.805      56399.882      28492.078      27907.804    
    283000   283000         0.26709234     0.29157033     344.82643      254.42879      90.397642      98.682244      301.15507      591.28183      59200.646      56276.861      28743.01       27533.851    
    284000   284000         0.26736631     0.27354025     349.04517      252.5851       96.460074      98.687501      299.35342     -516.51157      53657.186      56211.244      28571.056      27640.188    
    285000   285000         0.26784488     0.27223575     344.27079      247.17085      97.09994       98.69173       297.03904     -114.24675      55644          56208.93       28350.166      27858.764    
    286000   286000         0.26707774     0.29329603     348.92967      259.05914      89.870526      98.69287       296.73458     -529.66449      53726.361      56345.459      28321.107      28024.352    
    287000   287000         0.26815478     0.25632527     355.01898      251.76895      103.25003      98.695208      298.62413     -171.46137      55510.825      56358.671      28501.45       27857.221    
    288000   288000         0.26771713     0.28376393     340.53731      247.41623      93.121082      98.702703      299.06526     -71.233856      55883.31       56235.549      28543.553      27691.996    
    289000   289000         0.26816003     0.2528409      357.32455      252.62362      104.70093      98.719694      299.32614     -234.9812       55252.003      56413.944      28568.452      27845.492    
    290000   290000         0.26634955     0.26961621     353.77065      256.24779      97.522861      98.718935      297.24939     -3.7248286      56233.368      56251.787      28370.242      27881.545    
    291000   291000         0.26881125     0.21059459     366.99855      240.98931      126.00924      98.719319      298.56278      114.5437       56787.791      56221.392      28495.595      27725.798    
    292000   292000         0.26668262     0.34179757     336.60911      259.58519      77.02392       98.718802      296.92131     -665.26208      52910.36       56199.964      28338.93       27861.035    
    293000   293000         0.26740203     0.26112255     352.0857       250.99579      101.08991      98.715987      298.54369      193.4261       57036.484      56080.026      28493.773      27586.253    
    294000   294000         0.26756821     0.26844288     347.07949      248.6688       98.410688      98.732389      299.21316      65.920212      56547.558      56221.594      28557.669      27663.925    
    295000   295000         0.26750756     0.30062818     338.9615       251.10663      87.854869      98.732348      296.75337     -236.51879      55086.398      56255.942      28322.9        27933.042    
    296000   296000         0.26798938     0.26026343     348.27687      246.61674      101.66013      98.729333      298.28097     -104.99304      55663.986      56183.158      28468.699      27714.459    
    297000   297000         0.26766616     0.26592863     354.39966      255.01946      99.380202      98.735084      297.30968      167.89664      57031.714      56201.495      28375.996      27825.499    
    298000   298000         0.26803277     0.26410475     354.48567      254.28532      100.20036      98.73192       299.70205     -48.637728      55954.66       56195.165      28604.33       27590.835    
    299000   299000         0.2679682      0.29539113     348.43638      258.86359      89.572793      98.739361      297.93679     -79.290069      55881.312      56273.388      28435.85       27837.538    
    300000   300000         0.26772162     0.26986574     351.72972      253.7787       97.951016      98.735483      298.26227     -466.67099      53952.318      56259.924      28466.913      27793.011    
    301000   301000         0.2660307      0.25280178     358.78675      254.87659      103.91016      98.743017      297.19944      309.91846      57555.25       56022.757      28365.475      27657.283    
    302000   302000         0.26769364     0.27958604     344.75081      250.21194      94.538874      98.738802      297.41628      253.21174      57517.473      56265.385      28386.17       27879.215    
    303000   303000         0.26618298     0.26488906     348.63757      249.40469      99.232883      98.750511      298.26778     -335.7762       54383.27       56043.624      28467.44       27576.185    
    304000   304000         0.26600631     0.29902509     341.88054      254.0322       87.848342      98.752765      296.96804     -86.365474      55583.683      56010.745      28343.389      27667.356    
    305000   305000         0.26600457     0.24733977     349.56537      243.36997      106.1954       98.74396       296.55538      261.1099       57223.231      55932.089      28304.004      27628.085    
    306000   306000         0.26612403     0.24779934     356.32103      250.26316      106.05786      98.754963      297.16711     -101.96981      55579.823      56084.046      28362.389      27721.657    
    307000   307000         0.26482962     0.24526095     351.55994      244.91155      106.64839      98.767976      296.43118      461.18573      58274.648      55994.166      28292.15       27702.016    
    308000   308000         0.26541291     0.32220153     339.10542      257.74175      81.363663      98.772498      295.95455     -572.23498      53115.749      55945.35       28246.659      27698.691    
    309000   309000         0.26598559     0.27848938     342.73637      248.39856      94.337816      98.772567      296.59422     -347.39505      54373.362      56091.17       28307.711      27783.459    
    310000   310000         0.26617065     0.2448506      350.91897      243.5632       107.35577      98.756661      296.74662     -44.344697      55874.605      56093.882      28322.256      27771.626    
    311000   311000         0.26572912     0.29929028     338.58839      250.90691      87.681478      98.75551       297.34694     -134.31834      55510.186      56174.367      28379.553      27794.814    
    312000   312000         0.26535533     0.30921486     344.35234      259.59727      84.755067      98.763894      297.59507      321.56198      57655.944      56065.877      28403.235      27662.642    
    313000   313000         0.26566906     0.23987789     356.24999      246.86679      109.3832       98.764272      296.66106      74.338433      56372.695      56005.104      28314.09       27691.015    
    314000   314000         0.26460976     0.27726652     345.90501      251.65546      94.249549      98.757675      296.59072     -406.72817      53802.417      55813.617      28307.377      27506.24     
    315000   315000         0.2637151      0.32119036     336.48395      255.3991       81.08485       98.756851      294.8402       206.3253       57026.507      56006.265      28140.303      27865.962    
    316000   316000         0.26467147     0.29370867     343.08588      254.10095      88.984932      98.7475        295.73534      282.96775      57312.283      55913.058      28225.737      27687.32     
    317000   317000         0.26383881     0.26008616     352.22763      252.07057      100.15706      98.732501      296.65223     -226.03533      54780.941      55898.646      28313.248      27585.398    
    318000   318000         0.26393265     0.28797611     341.35693      250.87147      90.485455      98.728403      296.57746     -352.10415      54293.591      56034.684      28306.112      27728.572    
    319000   319000         0.26540325     0.25293078     358.21465      254.61634      103.59831      98.72977       297.18342     -85.50218       55892.84       56315.633      28363.946      27951.688    
    320000   320000         0.26504585     0.2527508      352.81257      249.26263      103.54993      98.746415      295.17569      129.79668      56751.639      56109.817      28172.323      27937.494    
    321000   321000         0.26525099     0.2540243      348.35202      245.23771      103.11431      98.750021      297.58422      35.262489      56385.163      56210.796      28402.199      27808.597    
[...]
    932000   932000         0.25905865     0.29741216     344.82945      258.95541      85.874044      98.587658      297.19885      361.53358      57868.613      56080.893      28365.418      27715.475    
    933000   933000         0.25972649     0.27174934     348.48468      254.25773      94.226949      98.588755      297.37978     -30.410074      55784.621      55934.994      28382.686      27552.308    
    934000   934000         0.25975319     0.26938811     350.37081      255.30248      95.068333      98.594664      298.08128      210.56327      57168.896      56127.698      28449.639      27678.058    
    935000   935000         0.25959177     0.29244912     343.58057      256.06759      87.512972      98.589767      296.20485      326.07734      57517.339      55904.944      28270.548      27634.396    
    936000   936000         0.259683       0.24354162     356.62497      251.49566      105.12931      98.594683      297.03345     -17.853418      55704.079      55792.361      28349.632      27442.728    
    937000   937000         0.2594934      0.26703129     349.91364      254.09998      95.813655      98.596895      296.46389      412.893        57991.674      55949.991      28295.272      27654.719    
    938000   938000         0.25943847     0.26723682     351.87391      256.1559       95.718009      98.595154      297.65762     -160.62273      55318.187      56112.438      28409.204      27703.234    
    939000   939000         0.25942083     0.33048301     335.94093      258.54714      77.393794      98.593986      297.17619      22.10623       56170.677      56061.365      28363.256      27698.11     
    940000   940000         0.25963163     0.23356805     359.5031       249.90891      109.59419      98.59238       297.69984     -81.372252      55666.667      56069.039      28413.234      27655.805    
    941000   941000         0.2597923      0.24688262     350.51174      246.76233      103.74941      98.593864      296.87692     -20.320915      55895.395      55995.878      28334.692      27661.186    
    942000   942000         0.2598701      0.28749051     339.13389      250.01219      89.121701      98.594039      296.00238     -728.26152      52414.13       56015.255      28251.224      27764.031    
    943000   943000         0.26027368     0.24141332     359.70112      253.40042      106.3007       98.597773      297.37429     -53.942769      55946.608      56213.345      28382.163      27831.182    
    944000   944000         0.26028728     0.2568336      355.73566      255.81323      99.922432      98.596589      298.95852      248.26419      57386.992      56159.369      28533.366      27626.003    
    945000   945000         0.26003833     0.25500803     351.20001      250.65597      100.54404      98.599069      297.97179      179.80013      57073.529      56184.449      28439.19       27745.259    
    946000   946000         0.26021047     0.25041595     343.95095      241.49623      102.45473      98.598253      296.06409      258.54405      57385.538      56107.083      28257.113      27849.969    
    947000   947000         0.26048974     0.26198071     351.39559      253.35407      98.041514      98.602676      298.28804      0.62894038     56249.565      56246.455      28469.373      27777.082    
    948000   948000         0.26025471     0.25348823     355.92044      254.6832       101.23724      98.605128      297.45085     -64.201549      55943.549      56261.014      28389.469      27871.545    
    949000   949000         0.25964018     0.34802402     335.11552      261.55491      73.560603      98.60129       297.40792      417.43081      58070.51       56006.388      28385.372      27621.016    
    950000   950000         0.26002028     0.22438267     354.39953      240.14397      114.25556      98.596033      296.18351      47.665555      56240.491      56004.793      28268.511      27736.282    
    951000   951000         0.259757       0.28137995     339.29984      248.28625      91.013584      98.589828      298.85784     -119.48085      55530.282      56121.094      28523.757      27597.337    
    952000   952000         0.25993066     0.26179575     346.326        248.43868      97.887324      98.589698      296.6672       215.38766      57113.741      56048.687      28314.676      27734.011    
    953000   953000         0.26002329     0.22589054     360.96317      247.47205      113.49111      98.593355      297.95174     -117.24822      55572.353      56152.125      28437.275      27714.849    
    954000   954000         0.25988522     0.28556763     342.85192      253.12504      89.726881      98.59388       297.01157      415.8981       58342.433      56285.89       28347.544      27938.346    
    955000   955000         0.2600581      0.2442736      357.98548      253.02641      104.95907      98.588471      297.89824      183.94249      57311.412      56401.848      28432.17       27969.678    
    956000   956000         0.26003068     0.2437795      351.01475      245.84982      105.16493      98.592424      299.69904     -1150.474       50545.235      56234.126      28604.043      27630.083    
    957000   957000         0.25986802     0.26393927     351.36437      254.29579      97.068578      98.589314      299.86988      32.028466      56383.079      56224.704      28620.348      27604.356    
    958000   958000         0.26002465     0.24434064     347.81167      242.88788      104.92379      98.595059      297.57672      105.53322      56630.923      56109.08       28401.483      27707.596    
    959000   959000         0.25966316     0.28696886     352.75762      263.54184      89.215784      98.597552      298.11893     -149.11428      55414.922      56152.266      28453.233      27699.034    
    960000   960000         0.25995297     0.23003095     358.81999      247.39784      111.42215      98.596852      298.93644      159.57874      57134.565      56345.476      28531.258      27814.218    
    961000   961000         0.26001524     0.2737286      341.18569      247.53026      93.655435      98.594879      298.03507     -642.2306       53014.8        56190.518      28445.23       27745.288    
    962000   962000         0.26009059     0.27787462     346.45763      254.17475      92.282887      98.59285       297.66713      88.449136      56659.905      56222.539      28410.112      27812.428    
    963000   963000         0.26019713     0.27640141     342.23455      249.42578      92.808764      98.588611      297.36267     -396.63141      54269.779      56231.052      28381.054      27849.998    
    964000   964000         0.26030259     0.2248208      362.93115      248.78212      114.14903      98.589401      298.33689      364.03134      58056.927      56256.856      28474.036      27782.82     
    965000   965000         0.25966683     0.28382928     344.05441      253.85921      90.195207      98.588026      299.21834      81.583744      56636.294      56232.877      28558.163      27674.713    
    966000   966000         0.2600147      0.24497415     348.87728      244.23808      104.6392       98.586338      296.58224      336.13         57780.892      56118.789      28306.567      27812.221    
    967000   967000         0.26006848     0.25122753     355.48687      253.42997      102.0569       98.587507      298.96774      98.08543       56696.614      56211.598      28534.245      27677.353    
    968000   968000         0.26021325     0.26507654     347.02757      250.24712      96.780452      98.589244      298.7425      -134.91109      55695.013      56362.124      28512.748      27849.376    
    969000   969000         0.26009618     0.24900221     356.05583      253.07232      102.98352      98.590924      299.22281     -430.3949       54257.997      56386.224      28558.59       27827.634    
    970000   970000         0.25971151     0.28749786     341.497        252.43465      89.062352      98.591069      297.36641     -127.22518      55449.514      56078.62       28381.411      27697.209    
    971000   971000         0.26001838     0.23809391     352.11085      244.44665      107.6642       98.586074      297.24775     -198.01176      55361.314      56340.448      28370.086      27970.362    
    972000   972000         0.25996526     0.25412288     351.81147      250.9626       100.84887      98.582422      299.32615     -234.65617      55230.996      56391.329      28568.454      27822.876    
    973000   973000         0.25956655     0.2801432      340.06142      248.72647      91.334946      98.575353      298.74137     -6.0302539      56180.809      56210.628      28512.641      27697.987    
    974000   974000         0.25974948     0.26981542     347.20911      252.31228      94.896827      98.574318      296.86785     -273.1212       54873.355      56223.891      28333.827      27890.064    
    975000   975000         0.25930641     0.33299352     331.94721      255.18947      76.757738      98.569988      298.62635      85.666511      56444.984      56021.378      28501.662      27519.716    
    976000   976000         0.259635       0.25801852     352.17476      252.98892      99.185834      98.568305      298.47359     -86.918655      55886.354      56316.152      28487.083      27829.068    
    977000   977000         0.25959952     0.28315322     347.62129      257.25136      90.369934      98.569281      300.1482       577.8274       59211.24       56353.985      28646.911      27707.074    
    978000   978000         0.25989216     0.26414317     351.02815      254.04778      96.980369      98.566658      297.39115     -282.56518      55016.896      56414.131      28383.771      28030.36     
    979000   979000         0.25946141     0.28642988     346.55706      257.27217      89.284887      98.565174      298.89935     -293.06633      54801.685      56250.846      28527.719      27723.128    
    980000   980000         0.25935267     0.35930061     329.37678      258.22854      71.148247      98.566978      297.11219      19.283924      56268.02       56172.664      28357.147      27815.517    
    981000   981000         0.25973181     0.24838401     343.95406      240.88546      103.06859      98.565476      299.49038      321.11501      57886.137      56298.28       28584.128      27714.152    
    982000   982000         0.25996626     0.25408224     352.97467      252.12492      100.84975      98.567142      299.50351     -6.4831022      56551.9        56583.957      28585.381      27998.577    
    983000   983000         0.25998302     0.2228852      357.30594      242.3325       114.97344      98.567507      303.07493      237.52409      57528.561      56354.046      28926.247      27427.8      
    984000   984000         0.25948439     0.30113934     342.6942       257.75786      84.936345      98.571149      300.91514     -412.30571      54474.353      56513.132      28720.11       27793.022    
    985000   985000         0.25959162     0.23972657     347.64534      240.90559      106.73975      98.571571      299.78291      73.166862      56837.23       56475.432      28612.047      27863.385    
    986000   986000         0.25969316     0.24147341     351.71287      245.70011      106.01277      98.57504       300.10265     -10.532536      56431.064      56483.146      28642.565      27840.581    
    987000   987000         0.2595157      0.29285386     342.32096      254.96694      87.354018      98.575778      299.48253     -825.81504      52355.593      56439.103      28583.379      27855.724    
    988000   988000         0.2595475      0.29942376     349.30284      263.85651      85.446325      98.574093      299.85245     -2.2678796      56401.743      56412.957      28618.684      27794.273    
    989000   989000         0.25965601     0.23754819     357.72083      249.97264      107.74819      98.574213      297.97273      436.82385      58606.301      56446.284      28439.28       28007.004    
    990000   990000         0.25964753     0.22866752     358.81854      246.88815      111.9304       98.57535       298.52444     -83.794273      55911.309      56325.657      28491.936      27833.721    
    991000   991000         0.25950715     0.25098922     353.14142      251.21945      101.92197      98.576538      299.83005      98.355628      56953.25       56466.899      28616.547      27850.352    
    992000   992000         0.25962116     0.2747477      346.01536      252.86922      93.146134      98.573191      299.65109      215.12277      57475.116      56411.372      28599.466      27811.906    
    993000   993000         0.25941893     0.24253161     351.02886      245.59712      105.43174      98.568477      299.9521       167.72258      57430.328      56600.969      28628.195      27972.774    
    994000   994000         0.25987402     0.22802286     362.45564      250.11711      112.33853      98.569886      300.316        298.7624       58059.964      56582.637      28662.927      27919.71     
    995000   995000         0.25960548     0.26707248     346.75198      250.93779      95.814187      98.570077      299.55854      199.47128      57427.374      56441.023      28590.633      27850.39     
    996000   996000         0.25959498     0.25756798     354.08393      254.7375       99.346429      98.570701      300.60534      532.59409      59230.729      56597.145      28690.542      27906.603    
    997000   997000         0.25956423     0.26577935     352.84057      256.57487      96.2657        98.57073       299.88869     -22.166158      56346.083      56455.691      28622.143      27833.548    
    998000   998000         0.25974056     0.27643377     351.41827      258.80488      92.613389      98.565537      299.37733      71.916639      56897.583      56541.967      28573.338      27968.629    
    999000   999000         0.25980934     0.29743997     342.53447      256.43728      86.09719       98.567454      300.129       -208.48832      55354.273      56385.211      28645.079      27740.132    
   1000000   1000000        0.25972794     0.23607615     360.10612      251.66342      108.44269      98.567502      298.67734     -669.41611      53103.561      56413.706      28506.529      27907.177    
   1001000   1001000        0.25957775     0.31185838     334.98679      252.94282      82.043976      98.568161      298.65783      135.95314      56933.209      56260.944      28504.667      27756.277    
   1002000   1002000        0.25978474     0.24649008     356.09703      252.20732      103.88971      98.573082      299.27116     -436.19554      54349.678      56506.589      28563.205      27943.384    
   1003000   1003000        0.26013526     0.2123904      366.47145      245.73403      120.73742      98.577442      301.00859      634.93256      59600.517      56460.887      28729.029      27731.857    
   1004000   1004000        0.26004611     0.2603043      345.61414      247.1336       98.480543      98.578318      297.20343      89.222888      56832.876      56391.684      28365.855      28025.829    
   1005000   1005000        0.26001331     0.2355002      360.50679      251.66392      108.84286      98.581553      298.94359      431.31717      58606.114      56473.326      28531.94       27941.386    
   1006000   1006000        0.25974813     0.32841639     339.09465      261.12301      77.971642      98.584598      300.7811       174.0786       57357.635      56496.847      28707.318      27789.529    
   1007000   1007000        0.25980926     0.25442843     360.41391      259.75075      100.66316      98.578354      301.61666     -493.16405      53989.457      56428.067      28787.065      27641.002    
   1008000   1008000        0.26006994     0.27043757     345.6677       250.86726      94.800442      98.579642      300.24623     -122.68875      55909.165      56515.839      28656.268      27859.571    
   1009000   1009000        0.26002569     0.25770972     347.637        248.1747       99.462299      98.576417      300.21788      310.05611      58172.622      56639.449      28653.563      27985.887    
   1010000   1010000        0.26028799     0.26859276     355.31219      259.78492      95.527278      98.575179      302.5715       235.08385      57895.879      56733.431      28878.198      27855.234    
   1011000   1011000        0.26038639     0.25734004     350.28766      250.54817      99.739487      98.572602      301.91779      327.565        58445.128      56825.377      28815.806      28009.571    
   1012000   1012000        0.26070643     0.24345824     352.78903      247.23277      105.55626      98.572717      300.49639      158.04079      57377.682      56596.198      28680.143      27916.054    
   1013000   1013000        0.26028043     0.26598926     351.9909       255.53143      96.459468      98.57515       302.23875     -521.2793       53903.384      56481.019      28846.439      27634.58     
   1014000   1014000        0.26047828     0.29123418     339.23545      251.07048      88.164973      98.575026      300.85569      78.20383       56940.651      56553.947      28714.437      27839.51     
   1015000   1015000        0.26080216     0.24411755     353.22481      247.90818      105.31662      98.579077      302.11055     -350.54216      54955.758      56689.128      28834.203      27854.924    
   1016000   1016000        0.26036558     0.29632013     336.54209      249.92674      86.615343      98.576278      299.20188     -296.75081      55119.673      56587.053      28556.593      28030.46     
   1017000   1017000        0.26028928     0.29386647     340.45028      253.13767      87.312616      98.575901      298.81856     -95.532055      55972.883      56445.272      28520.007      27925.265    
   1018000   1018000        0.26043009     0.25484245     350.23508      249.49823      100.73684      98.575492      297.403        722.00289      59878.518      56308.34       28384.903      27923.438    
   1019000   1019000        0.26051558     0.26136148     342.17146      243.91672      98.254739      98.573772      297.39437     -385.51697      54430.754      56337.068      28384.079      27952.989    
   1020000   1020000        0.26044232     0.23544034     365.33814      256.29866      109.03949      98.5719        300.81195     -100.41462      56039.802      56536.335      28710.262      27826.073    
   1021000   1021000        0.26088169     0.24486836     347.08796      242.06496      105.023        98.576521      298.6488      -638.39335      53232.161      56388.904      28503.805      27885.099    
Loop time of 10707.3 on 32 procs for 1000000 steps with 32020 atoms

Performance: 8.069 ns/day, 2.974 hours/ns, 93.394 timesteps/s, 2.990 Matom-step/s
99.4% CPU use with 32 MPI tasks x 1 OpenMP threads

MPI task timing breakdown:
Section |  min time  |  avg time  |  max time  |%varavg| %total
---------------------------------------------------------------
Pair    | 6951.1     | 7547.7     | 8223.8     | 359.2 | 70.49
Bond    | 196.29     | 206.29     | 232.66     |  52.5 |  1.93
Kspace  | 1128.8     | 1796.3     | 2385.1     | 732.9 | 16.78
Neigh   | 342.1      | 352.37     | 356.42     |  19.1 |  3.29
Comm    | 417.99     | 526.21     | 691.68     | 286.6 |  4.91
Output  | 0.15473    | 0.1635     | 0.32541    |   7.2 |  0.00
Modify  | 177.35     | 249.94     | 336.04     | 293.2 |  2.33
Other   |            | 28.31      |            |       |  0.26

Nlocal:        1000.62 ave        1047 max         957 min
Histogram: 4 0 5 4 2 5 5 3 3 1
Nghost:        11093.1 ave       11213 max       10957 min
Histogram: 1 1 3 2 7 4 9 2 2 1
Neighs:         542844 ave      585461 max      501880 min
Histogram: 3 1 1 8 6 1 4 3 3 2

Total # of neighbors = 17370994
Ave neighs/atom = 542.5045
Ave special neighs/atom = 11.48782
Neighbor list builds = 28698
Dangerous builds = 0
Total wall time: 3:02:12
