units real
atom_style full
boundary p p p

# styles
pair_style lj/charmm/coul/long 8.0 12.0
kspace_style pppm 1e-6
dielectric 1.000000
bond_style harmonic
angle_style harmonic
dihedral_style fourier
improper_style cvff
special_bonds amber
pair_modify mix arithmetic
neighbor 2.0 bin
neigh_modify delay 0 every 1 check yes

# system definition
read_data ../final.data
Reading data file ...
  orthogonal box = (-41.07686 -32.676339 -31.575799) to (41.07686 32.676339 31.575799)
  4 by 4 by 2 MPI processor grid
  reading atoms ...
  32020 atoms
  reading velocities ...
  32020 velocities
  scanning bonds ...
  3 = max bonds/atom
  scanning angles ...
  6 = max angles/atom
  scanning dihedrals ...
  15 = max dihedrals/atom
  scanning impropers ...
  1 = max impropers/atom
  reading bonds ...
  34010 bonds
  reading angles ...
  60000 angles
  reading dihedrals ...
  95910 dihedrals
  reading impropers ...
  10000 impropers
Finding 1-2 1-3 1-4 neighbors ...
  special bond factors lj:    0        0        0.5     
  special bond factors coul:  0        0        0.8333333333333334
     4 = max # of 1-2 neighbors
     8 = max # of 1-3 neighbors
    18 = max # of 1-4 neighbors
    22 = max # of special neighbors
  special bonds CPU = 0.077 seconds
  read_data CPU = 0.592 seconds
# do not reset velocities

# vars
variable dt equal 1.0
variable tLog equal 1000
variable nEvery equal 10
variable nRepeat equal 100
variable boolDump equal 0
variable tDump equal 1000

variable tPreeq equal 10000
variable tPrerun equal 10000
variable tDelay equal 1000
variable tTCrun equal 1000000

# desiered temperature difference
variable Tavg equal 300.0
variable TempDiff equal 100.0
variable Thi equal ${Tavg}+(${TempDiff}/2)
variable Thi equal 300+(${TempDiff}/2)
variable Thi equal 300+(100/2)
variable Tlo equal ${Tavg}-(${TempDiff}/2)
variable Tlo equal 300-(${TempDiff}/2)
variable Tlo equal 300-(100/2)

# defining regions
variable hot_lo equal (ly*0)+ylo
variable hot_hi equal (ly*0.05)+ylo
variable cold_lo equal (ly*0.50)+ylo
variable cold_hi equal (ly*0.55)+ylo

# define heating and cooling block regions
region hot block INF INF ${hot_lo} ${hot_hi} INF INF units box
region hot block INF INF -32.6763385301816 ${hot_hi} INF INF units box
region hot block INF INF -32.6763385301816 -29.4087046771634 INF INF units box
region cold block INF INF ${cold_lo} ${cold_hi} INF INF units box
region cold block INF INF 0 ${cold_hi} INF INF units box
region cold block INF INF 0 3.26763385301816 INF INF units box
compute Thot all temp/region hot
compute Tcold all temp/region cold

# STEP 1 - 1st equilibration (nve)
# 1a - thermo output for md1
thermo_style custom step time temp c_Thot c_Tcold press enthalpy etotal ke pe
thermo_modify colname c_Thot Temp_hot colname c_Tcold Temp_cold
thermo_modify flush yes
thermo ${tLog}
thermo 1000

# 1b - nve equilibration
timestep ${dt}
timestep 1
fix md1 all nve
run ${tPreeq}
run 10000
PPPM initialization ...
  using 12-bit tables for long-range coulomb (src/kspace.cpp:342)
  G vector (1/distance) = 0.23713698
  grid = 45 36 36
  stencil order = 5
  estimated absolute RMS force accuracy = 0.00028675184
  estimated relative force accuracy = 8.6354464e-07
  using double precision FFTW3
  3d grid and FFT values/proc = 7200 3240
Generated 10 of 10 mixed pair_coeff terms from arithmetic mixing rule
Neighbor list info ...
  update: every = 1 steps, delay = 0 steps, check = yes
  max neighbors/atom: 2000, page size: 100000
  master list distance cutoff = 14
  ghost atom cutoff = 14
  binsize = 7, bins = 12 10 10
  1 neighbor lists, perpetual/occasional/extra = 1 0 0
  (1) pair lj/charmm/coul/long, perpetual
      attributes: half, newton on
      pair build: half/bin/newton
      stencil: half/bin/3d
      bin: standard
Per MPI rank memory allocation (min/avg/max) = 17.69 | 17.74 | 18.22 Mbytes
   Step          Time           Temp         Temp_hot      Temp_cold        Press         Enthalpy        TotEng         KinEng         PotEng    
         0   0              299.02528      296.86558      305.10596     -153.33602      55796.692      56554.912      28539.738      28015.174    
      1000   1000           299.34921      302.01065      305.61081     -533.94942      53910.169      56550.455      28570.654      27979.802    
      2000   2000           300.69825      293.87843      310.67669      293.70498      57997.453      56545.133      28699.41       27845.723    
      3000   3000           300.66594      297.63826      302.62638      304.79857      58051.772      56544.597      28696.326      27848.271    
      4000   4000           302.24223      299.42648      308.68461      50.633677      56790.187      56539.813      28846.771      27693.042    
      5000   5000           298.64446      303.38966      292.84187     -593.91796      53609.237      56546.057      28503.391      28042.667    
      6000   6000           300.70099      307.36155      289.77234     -2.0153206      56533.387      56543.353      28699.671      27843.681    
      7000   7000           299.95165      315.96929      313.25635     -241.02072      55351.872      56543.678      28628.153      27915.525    
      8000   8000           299.2205       303.57847      301.52346     -29.12992       56404.068      56548.111      28558.369      27989.741    
      9000   9000           298.40771      306.163        308.05796     -542.18678      53869.292      56550.31       28480.795      28069.516    
     10000   10000          298.80037      299.14882      296.23438      74.129188      56914.001      56547.445      28518.272      28029.174    
Loop time of 106.059 on 32 procs for 10000 steps with 32020 atoms

Performance: 8.146 ns/day, 2.946 hours/ns, 94.287 timesteps/s, 3.019 Matom-step/s
99.5% CPU use with 32 MPI tasks x 1 OpenMP threads

MPI task timing breakdown:
Section |  min time  |  avg time  |  max time  |%varavg| %total
---------------------------------------------------------------
Pair    | 68.661     | 75.575     | 83.639     |  39.2 | 71.26
Bond    | 1.887      | 2.051      | 2.301      |   6.3 |  1.93
Kspace  | 10.378     | 18.486     | 25.301     |  78.6 | 17.43
Neigh   | 3.2419     | 3.3821     | 3.4196     |   2.3 |  3.19
Comm    | 3.7957     | 5.326      | 7.3068     |  37.6 |  5.02
Output  | 0.00088402 | 0.0015444  | 0.0039535  |   1.7 |  0.00
Modify  | 0.051564   | 0.056853   | 0.086137   |   3.3 |  0.05
Other   |            | 1.181      |            |       |  1.11

Nlocal:        1000.62 ave        1047 max         950 min
Histogram: 2 2 3 1 5 8 4 2 4 1
Nghost:        11111.1 ave       11244 max       10988 min
Histogram: 4 3 2 4 2 7 3 2 4 1
Neighs:         542914 ave      601481 max      494271 min
Histogram: 2 2 3 6 4 8 4 1 1 1

Total # of neighbors = 17373263
Ave neighs/atom = 542.57536
Ave special neighs/atom = 11.48782
Neighbor list builds = 275
Dangerous builds = 0
unfix md1

# STEP 2 - pre run
# 2a - impose nve
fix md2 all nve

# 2b - impose thermostating
fix hot all langevin ${Thi} ${Thi} 100.0 57485 tally yes
fix hot all langevin 350 ${Thi} 100.0 57485 tally yes
fix hot all langevin 350 350 100.0 57485 tally yes
fix cold all langevin ${Tlo} ${Tlo} 100.0 12490 tally yes
fix cold all langevin 250 ${Tlo} 100.0 12490 tally yes
fix cold all langevin 250 250 100.0 12490 tally yes
fix_modify hot temp Thot
fix_modify cold temp Tcold
# calculate tdiff of regions
variable tdiff equal c_Thot-c_Tcold

# 2c - thermo output
thermo_style custom step time temp c_Thot c_Tcold f_hot f_cold v_tdiff press enthalpy etotal ke pe
WARNING: New thermo_style command, previous thermo_modify settings will be lost (src/output.cpp:904)
thermo_modify colname c_Thot Temp_hot colname c_Tcold Temp_cold               colname f_hot E_hot colname f_cold E_cold               colname v_tdiff dTemp_step
thermo_modify flush yes
thermo ${tLog}
thermo 1000

# 2d - pre run
run ${tPrerun}
run 10000
PPPM initialization ...
  using 12-bit tables for long-range coulomb (src/kspace.cpp:342)
  G vector (1/distance) = 0.23713698
  grid = 45 36 36
  stencil order = 5
  estimated absolute RMS force accuracy = 0.00028675184
  estimated relative force accuracy = 8.6354464e-07
  using double precision FFTW3
  3d grid and FFT values/proc = 7200 3240
Generated 10 of 10 mixed pair_coeff terms from arithmetic mixing rule
Per MPI rank memory allocation (min/avg/max) = 18.44 | 18.53 | 18.98 Mbytes
   Step          Time           Temp         Temp_hot      Temp_cold        E_hot          E_cold       dTemp_step       Press         Enthalpy        TotEng         KinEng         PotEng    
     10000   10000          298.80037      299.59519      296.23438     -0             -0              3.3608119      74.129188      56914.001      56547.445      28518.272      28029.174    
     11000   11000          299.2578       337.03068      262.35852     -1113.7706      1166.2511      74.672155     -554.62037      53763.478      56505.979      28561.929      27944.049    
     12000   12000          299.23475      346.85497      255.91608     -1356.2917      1483.6532      90.938894      444.16975      58624.216      56427.875      28559.73       27868.144    
     13000   13000          299.98938      347.85634      250.31305     -1775.415       1790.9111      97.543285     -578.82827      53682.288      56544.492      28631.753      27912.739    
     14000   14000          299.59081      344.21994      249.3741      -1885.0027      1997.5951      94.845837     -197.05557      55480.969      56455.374      28593.713      27861.661    
     15000   15000          299.44245      347.04784      252.08094     -2022.7492      2117.4918      94.966901     -358.52073      54704.735      56477.557      28579.553      27898.003    
     16000   16000          299.71257      350.71062      247.46883     -2318.4154      2376.4461      103.24179     -271.59969      55169.678      56512.691      28605.334      27907.356    
     17000   17000          301.51802      350.14838      254.45979     -2481.871       2517.2266      95.688588     -393.17581      54589.855      56534.04       28777.651      27756.389    
     18000   18000          299.67055      335.19518      254.52243     -2581.1731      2596.589       80.67275       86.449069      56995.921      56568.446      28601.324      27967.122    
     19000   19000          300.44221      337.09174      252.66135     -2674.0888      2796.6399      84.430394      35.507251      56630.959      56455.382      28674.973      27780.409    
     20000   20000          300.40556      346.88476      257.45863     -2929.5427      2914.5584      89.426128      208.19324      57640.399      56610.92       28671.474      27939.446    
Loop time of 107.09 on 32 procs for 10000 steps with 32020 atoms

Performance: 8.068 ns/day, 2.975 hours/ns, 93.380 timesteps/s, 2.990 Matom-step/s
99.5% CPU use with 32 MPI tasks x 1 OpenMP threads

MPI task timing breakdown:
Section |  min time  |  avg time  |  max time  |%varavg| %total
---------------------------------------------------------------
Pair    | 67.59      | 75.229     | 83.014     |  41.1 | 70.25
Bond    | 1.8697     | 2.0613     | 2.3091     |   6.4 |  1.92
Kspace  | 10.477     | 18.285     | 25.894     |  81.6 | 17.07
Neigh   | 3.2544     | 3.4053     | 3.4478     |   2.5 |  3.18
Comm    | 3.5906     | 5.2888     | 7.4318     |  43.6 |  4.94
Output  | 0.001302   | 0.0016163  | 0.0034332  |   0.8 |  0.00
Modify  | 1.6135     | 2.5402     | 3.7847     |  45.1 |  2.37
Other   |            | 0.2794     |            |       |  0.26

Nlocal:        1000.62 ave        1036 max         939 min
Histogram: 1 1 2 1 1 6 4 10 2 4
Nghost:        11103.1 ave       11241 max       11000 min
Histogram: 2 4 3 4 9 2 4 3 0 1
Neighs:         542876 ave      583437 max      480525 min
Histogram: 1 1 0 4 2 9 4 5 3 3

Total # of neighbors = 17372017
Ave neighs/atom = 542.53645
Ave special neighs/atom = 11.48782
Neighbor list builds = 278
Dangerous builds = 0
unfix md2

# STEP 3 - md for tc caluclation
# 3a - impose nve
fix md3 all nve

# 3b - calculate and output thermal profile
compute ke all ke/atom
variable temp atom c_ke/(1.5*0.001987204)
compute layers all chunk/atom bin/1d y lower 0.05 units reduced
fix bins all ave/chunk ${nEvery} ${nRepeat} ${tLog} layers v_temp file Tprofile_y_lav.dat
fix bins all ave/chunk 10 ${nRepeat} ${tLog} layers v_temp file Tprofile_y_lav.dat
fix bins all ave/chunk 10 100 ${tLog} layers v_temp file Tprofile_y_lav.dat
fix bins all ave/chunk 10 100 1000 layers v_temp file Tprofile_y_lav.dat

# 3c - reset thermostats to zero energy accumulation
fix hot all langevin ${Thi} ${Thi} 100.0 57485 tally yes
fix hot all langevin 350 ${Thi} 100.0 57485 tally yes
fix hot all langevin 350 350 100.0 57485 tally yes
fix cold all langevin ${Tlo} ${Tlo} 100.0 12490 tally yes
fix cold all langevin 250 ${Tlo} 100.0 12490 tally yes
fix cold all langevin 250 250 100.0 12490 tally yes
fix_modify hot temp Thot
fix_modify cold temp Tcold

# 3c - compute average tdiff
fix ave all ave/time ${nEvery} ${nRepeat} ${tLog} v_tdiff ave running
fix ave all ave/time 10 ${nRepeat} ${tLog} v_tdiff ave running
fix ave all ave/time 10 100 ${tLog} v_tdiff ave running
fix ave all ave/time 10 100 1000 v_tdiff ave running

# 3d - time delay run
variable aTime equal time
variable start_time equal ${aTime}
variable start_time equal 20000
run ${tDelay}
run 1000
PPPM initialization ...
  using 12-bit tables for long-range coulomb (src/kspace.cpp:342)
  G vector (1/distance) = 0.23713698
  grid = 45 36 36
  stencil order = 5
  estimated absolute RMS force accuracy = 0.00028675184
  estimated relative force accuracy = 8.6354464e-07
  using double precision FFTW3
  3d grid and FFT values/proc = 7200 3240
Generated 10 of 10 mixed pair_coeff terms from arithmetic mixing rule
Per MPI rank memory allocation (min/avg/max) = 18.69 | 18.78 | 19.23 Mbytes
   Step          Time           Temp         Temp_hot      Temp_cold        E_hot          E_cold       dTemp_step       Press         Enthalpy        TotEng         KinEng         PotEng    
     20000   20000          300.40556      347.67815      257.45863     -0             -0              90.21952       208.19324      57640.399      56610.92       28671.474      27939.446    
     21000   21000          300.22981      347.60059      257.46566     -110.70216      86.216819      90.134931      231.6274       57786.913      56641.556      28654.701      27986.855    
Loop time of 10.7604 on 32 procs for 1000 steps with 32020 atoms

Performance: 8.029 ns/day, 2.989 hours/ns, 92.933 timesteps/s, 2.976 Matom-step/s
99.5% CPU use with 32 MPI tasks x 1 OpenMP threads

MPI task timing breakdown:
Section |  min time  |  avg time  |  max time  |%varavg| %total
---------------------------------------------------------------
Pair    | 6.7206     | 7.5523     | 8.3717     |  13.4 | 70.19
Bond    | 0.18759    | 0.20656    | 0.2273     |   1.9 |  1.92
Kspace  | 1.0477     | 1.8838     | 2.6298     |  26.3 | 17.51
Neigh   | 0.29467    | 0.3078     | 0.31145    |   0.7 |  2.86
Comm    | 0.36226    | 0.5196     | 0.73113    |  13.0 |  4.83
Output  | 9.3775e-05 | 9.9977e-05 | 0.00023394 |   0.0 |  0.00
Modify  | 0.16304    | 0.26309    | 0.37736    |  13.3 |  2.45
Other   |            | 0.02725    |            |       |  0.25

Nlocal:        1000.62 ave        1047 max         941 min
Histogram: 2 1 1 4 1 7 8 4 2 2
Nghost:        11108.5 ave       11255 max       10991 min
Histogram: 3 1 4 6 7 2 5 2 1 1
Neighs:         542963 ave      591907 max      482407 min
Histogram: 2 0 2 3 6 4 6 5 2 2

Total # of neighbors = 17374824
Ave neighs/atom = 542.62411
Ave special neighs/atom = 11.48782
Neighbor list builds = 25
Dangerous builds = 0

# 3f - calculate kappa
variable kappa_inst equal (0.5*(abs(f_hot)+abs(f_cold))/(time-${start_time})/(lx*lz)/2.0)*(ly/2.0)/v_tdiff*69478.5785
variable kappa_inst equal (0.5*(abs(f_hot)+abs(f_cold))/(time-20000)/(lx*lz)/2.0)*(ly/2.0)/v_tdiff*69478.5785
variable kappa equal (0.5*(abs(f_hot)+abs(f_cold))/(time-${start_time})/(lx*lz)/2.0)*(ly/2.0)/f_ave*69478.5785
variable kappa equal (0.5*(abs(f_hot)+abs(f_cold))/(time-20000)/(lx*lz)/2.0)*(ly/2.0)/f_ave*69478.5785

# 3e - thermo out
# dump dump_tc all custom 1000 dump.tc_x_ehex.lammpstrj id type mol x y z ix iy iz vx vy vz
thermo_style custom step time v_kappa v_kappa_inst c_Thot c_Tcold v_tdiff f_ave temp press enthalpy etotal ke pe
WARNING: New thermo_style command, previous thermo_modify settings will be lost (src/output.cpp:904)
thermo_modify colname v_kappa kappa colname v_kappa_inst kappa_inst               colname c_Thot Temp_hot colname c_Tcold Temp_cold               colname v_tdiff dTemp_step colname f_ave dTemp
thermo_modify flush yes
thermo ${tLog}
thermo 1000

# 2g - md run for kappa calculation
# optional traj dump
if "${boolDump} == 1" then     "dump tc_dump all atom ${tDump} dump.tc_y.lammpstrj"
run ${tTCrun}
run 1000000
PPPM initialization ...
  using 12-bit tables for long-range coulomb (src/kspace.cpp:342)
  G vector (1/distance) = 0.23713698
  grid = 45 36 36
  stencil order = 5
  estimated absolute RMS force accuracy = 0.00028675184
  estimated relative force accuracy = 8.6354464e-07
  using double precision FFTW3
  3d grid and FFT values/proc = 7200 3240
Generated 10 of 10 mixed pair_coeff terms from arithmetic mixing rule
Per MPI rank memory allocation (min/avg/max) = 18.94 | 19.03 | 19.48 Mbytes
   Step          Time          kappa        kappa_inst      Temp_hot      Temp_cold      dTemp_step       dTemp           Temp          Press         Enthalpy        TotEng         KinEng         PotEng    
     21000   21000          0              0              347.85112      257.46566      90.385455      97.839105      300.22981      231.6274       57786.913      56641.556      28654.701      27986.855    
     22000   22000          0.26925191     0.25526587     355.5879       252.59533      102.99257      97.642714      299.28953      90.16934       57080.516      56634.644      28564.958      28069.687    
     23000   23000          0.23238815     0.21962226     349.93448      246.75201      103.18248      97.514306      299.6722      -450.0077       54193.666      56418.875      28601.481      27817.394    
     24000   24000          0.2343798      0.25930516     344.54532      256.68925      87.856072      97.199217      299.8279      -455.75137      54193.967      56447.578      28616.341      27831.237    
     25000   25000          0.25847635     0.2658167      354.43918      260.42915      94.010023      96.679772      298.89683      24.682399      56527.88       56405.83       28527.478      27878.352    
     26000   26000          0.26751193     0.26901748     342.02539      245.65693      96.368456      96.910817      297.81391      190.82333      57233.968      56290.38       28424.121      27866.259    
     27000   27000          0.257774       0.25696827     352.39635      254.90475      97.491599      97.186867      298.59992     -561.87858      53589.63       56368.021      28499.14       27868.881    
     28000   28000          0.25802985     0.26323332     344.38775      249.54545      94.842303      96.754908      300.02596     -96.174612      55903.231      56378.797      28635.245      27743.553    
     29000   29000          0.28574714     0.25181859     347.4968       237.4221       110.0747       97.004842      299.28444      499.17336      58765.404      56297.079      28564.472      27732.607    
     30000   30000          0.29442235     0.28409516     356.28186      255.86795      100.41391      96.891777      299.83185      220.20026      57709.454      56620.602      28616.719      28003.884    
     31000   31000          0.31475741     0.32448529     341.4552       247.08435      94.370851      97.287473      299.88535      200.01944      57591.16       56602.099      28621.825      27980.274    
     32000   32000          0.29613451     0.26366808     350.46904      241.50933      108.95971      97.014016      300.10144     -337.32831      54962.644      56630.673      28642.449      27988.224    
     33000   33000          0.29833683     0.2933664      352.76297      254.0818       98.681169      97.037096      299.91411      129.65309      57239.318      56598.206      28624.569      27973.637    
     34000   34000          0.30326879     0.23574149     369.15842      244.20611      124.95231      97.129823      298.71637      25.158381      56615.663      56491.259      28510.254      27981.005    
     35000   35000          0.28866439     0.24818341     359.79651      246.77806      113.01845      97.169255      298.70654     -277.56348      55092.568      56465.071      28509.316      27955.755    
     36000   36000          0.28103989     0.29362559     350.18811      257.39771      92.790393      96.945789      300.25351     -412.27159      54586.421      56625.032      28656.963      27968.069    
     37000   37000          0.29843115     0.28743317     351.07959      250.51932      100.56027      96.854358      298.34031     -668.18306      53111.321      56415.369      28474.362      27941.007    
     38000   38000          0.29472535     0.33343837     338.18591      252.55898      85.626926      96.874266      299.81655     -20.540686      56389.61       56491.18       28615.259      27875.922    
     39000   39000          0.29485113     0.33393083     346.8962       261.23063      85.665563      97.019716      298.87036     -354.11098      54666.076      56417.093      28524.952      27892.141    
     40000   40000          0.29290394     0.26631484     358.67621      251.70035      106.97586      97.264852      299.49136      642.98943      59646.842      56467.372      28584.221      27883.151    
     41000   41000          0.29894372     0.27799605     355.08192      250.23428      104.84764      97.500724      299.96563      116.4943       57011.834      56435.79       28629.487      27806.303    
     42000   42000          0.28911598     0.25141261     358.47769      246.37143      112.10626      97.486577      299.54863     -548.30693      53737.601      56448.883      28589.687      27859.196    
     43000   43000          0.28967765     0.29708074     347.51938      252.32177      95.197615      97.630513      299.72204     -266.9477       55059.451      56379.46       28606.238      27773.222    
     44000   44000          0.29300063     0.26547318     358.77389      251.03653      107.73736      97.615425      299.06768     -577.38046      53444.893      56299.938      28543.784      27756.154    
     45000   45000          0.28206602     0.32204013     349.76309      264.28822      85.474864      97.588273      298.12188     -60.291626      56048          56346.132      28453.515      27892.617    
     46000   46000          0.28970788     0.22990254     367.91571      244.8931       123.02261      97.626651      298.4252      -224.08189      55097.722      56205.768      28482.465      27723.303    
     47000   47000          0.28758183     0.30789534     344.37597      253.22013      91.155836      97.594681      297.86865     -150.7126       55430.598      56175.845      28429.346      27746.5      
     48000   48000          0.29419044     0.29611609     347.23613      250.09408      97.14205       97.777903      297.85283     -219.21506      55161.819      56245.799      28427.836      27817.964    
     49000   49000          0.29321418     0.26283908     358.36794      249.29933      109.06861      97.769805      299.96682     -42.476968      56177.917      56387.958      28629.601      27758.357    
     50000   50000          0.28440389     0.25724264     355.67086      247.51722      108.15364      97.824707      299.30957     -480.51872      53886.469      56262.55       28566.87       27695.68     
     51000   51000          0.28971366     0.31109946     341.18782      249.97063      91.217191      97.950574      297.28526      240.5482       57500.636      56311.167      28373.665      27937.502    
     52000   52000          0.28277161     0.26762395     353.10208      249.62808      103.474        97.931047      298.10111      63.679573      56459.196      56144.311      28451.532      27692.779    
     53000   53000          0.28534805     0.26886205     355.07079      251.2931       103.77768      97.781922      298.18476      6.6429992      56344.571      56311.723      28459.516      27852.206    
     54000   54000          0.27899462     0.29074184     342.68846      248.87176      93.816698      97.766902      296.77394      100.95267      56576.81       56077.617      28324.864      27752.753    
     55000   55000          0.28376929     0.28093123     354.60101      255.8274       98.773614      97.78575       299.24455     -222.3278       55178.39       56277.762      28560.665      27717.097    
     56000   56000          0.28314057     0.29025101     349.99803      254.61863      95.379398      97.774639      298.70385     -257.09371      55153.35       56424.633      28509.059      27915.574    
     57000   57000          0.27511136     0.26176894     352.94069      250.25068      102.69001      97.709718      298.96858     -57.193555      56075.522      56358.334      28534.326      27824.008    
     58000   58000          0.27647838     0.27120047     351.63267      251.98054      99.652129      97.749794      297.00835     -536.4322       53670.013      56322.576      28347.236      27975.34     
     59000   59000          0.27684859     0.30874338     339.32444      251.623        87.701436      97.805221      296.52784      199.36016      57153.977      56168.176      28301.375      27866.8      
     60000   60000          0.27697467     0.28392777     342.05912      246.68544      95.373672      97.767907      296.60778     -35.057462      55884.656      56058.009      28309.005      27749.004    
     61000   61000          0.27985453     0.26132479     352.63324      247.86082      104.77242      97.835225      299.05929     -1001.3228      51104.175      56055.54       28542.984      27512.556    
     62000   62000          0.27582119     0.30015131     335.37032      245.48849      89.881834      97.810286      297.30578      94.039652      56547.693      56082.683      28375.624      27707.059    
     63000   63000          0.28148629     0.28636772     350.68167      254.5619       96.119777      97.78665       300.06813      626.50843      59358.381      56260.407      28639.27       27621.136    
     64000   64000          0.27895453     0.28807322     345.80471      251.12058      94.684127      97.779236      299.16024     -42.795655      56176.994      56388.611      28552.618      27835.993    
     65000   65000          0.27625097     0.300208       341.97962      252.02482      89.954803      97.75586       297.18924      416.88861      58328.322      56266.881      28364.501      27902.381    
     66000   66000          0.27484318     0.28570739     338.15216      244.15502      93.99714       97.712731      296.95924     -518.65015      53491.115      56055.749      28342.55       27713.199    
     67000   67000          0.27604521     0.25833702     353.84599      249.44495      104.40104      97.703752      298.26171     -168.82167      55320.574      56155.367      28466.86       27688.507    
     68000   68000          0.27295957     0.29029132     347.13443      255.32883      91.805599      97.634855      296.67212     -243.99389      54796.378      56002.885      28315.146      27687.739    
     69000   69000          0.27696868     0.36151589     341.06115      266.26975      74.791402      97.622157      299.41104     -79.823243      55758.455      56153.167      28576.555      27576.612    
     70000   70000          0.27870712     0.2893606      344.44545      250.41671      94.028738      97.622955      297.91002     -211.99409      55174.757      56223.031      28433.294      27789.737    
     71000   71000          0.28216712     0.23554671     360.66744      243.65185      117.01558      97.681952      298.46413      16.555922      56320.764      56238.898      28486.18       27752.718    
     72000   72000          0.27951081     0.28476213     343.69894      247.82628      95.872656      97.673868      298.39061      190.96641      57129.068      56184.772      28479.162      27705.61     
     73000   73000          0.28124686     0.24423934     359.7158       247.19423      112.52157      97.715561      296.96057     -75.677909      55664.332      56038.546      28342.676      27695.87     
     74000   74000          0.2806284      0.27852874     349.90525      251.46674      98.438509      97.701992      296.99709     -305.6517       54711.598      56222.992      28346.162      27876.829    
     75000   75000          0.28017817     0.28756522     347.68043      252.42869      95.251736      97.7631        298.90396      585.14368      59147.564      56254.132      28528.159      27725.973    
     76000   76000          0.27662714     0.28484511     344.88679      249.92597      94.960817      97.78189       296.80245     -454.61655      53900.926      56148.924      28327.584      27821.34     
     77000   77000          0.27618478     0.30063691     353.68107      263.95134      89.729725      97.673982      297.17941      403.38509      58232.841      56238.173      28363.563      27874.61     
     78000   78000          0.27955499     0.25266621     354.52659      246.46366      108.06293      97.66898       299.18698      382.09402      58097.418      56208.03       28555.171      27652.859    
     79000   79000          0.28001781     0.2840121      347.73962      251.36844      96.371181      97.745857      297.44944     -810.59038      52379.265      56387.492      28389.335      27998.157    
     80000   80000          0.27867245     0.28120057     348.3866       251.50628      96.880322      97.759223      298.96586     -395.29335      54352.997      56307.654      28534.066      27773.588    
     81000   81000          0.27730807     0.29145979     344.90555      251.96383      92.941723      97.68477       298.67246      261.31218      57523.844      56231.701      28506.063      27725.638    
     82000   82000          0.27855908     0.28277966     342.613        246.46916      96.143839      97.600558      298.55865      244.14911      57468.38       56261.105      28495.201      27765.905    
     83000   83000          0.27987051     0.26564432     350.72167      247.8741       102.84757      97.619691      295.20319      44.211239      56385.587      56166.97       28174.947      27992.023    
     84000   84000          0.28034074     0.25709204     362.13808      255.63681      106.50128      97.66911       296.66985      87.626977      56676.336      56243.036      28314.929      27928.107    
     85000   85000          0.27662609     0.30786905     347.8494       260.07678      87.772626      97.685924      297.81131     -242.18522      55168.27       56365.833      28423.873      27941.96     
     86000   86000          0.27478049     0.29984781     339.95307      250.46513      89.487946      97.651639      296.04479      219.27072      57296.469      56212.214      28255.271      27956.943    
     87000   87000          0.27565427     0.2586564      347.62382      243.52058      104.10324      97.683848      296.32641      195.74555      57023.442      56055.515      28282.15       27773.365    
     88000   88000          0.27565981     0.26931292     346.60607      246.58327      100.0228       97.719835      296.83133     -244.13488      54910.204      56117.408      28330.341      27787.067    
     89000   89000          0.27421189     0.27535705     347.20744      249.901        97.306444      97.712816      295.47664      519.07796      58672.054      56105.305      28201.046      27904.259    
     90000   90000          0.27524329     0.28053392     342.05121      246.14132      95.909889      97.753438      297.63177     -234.05848      54936.351      56093.729      28406.737      27686.992    
     91000   91000          0.27442667     0.27760089     348.11144      251.41054      96.700896      97.81941       297.18133     -928.74971      51532.069      56124.573      28363.746      27760.826    
     92000   92000          0.27071092     0.27954699     349.11045      254.33406      94.776392      97.869919      299.25059      209.6881       57187.693      56150.823      28561.242      27589.581    
     93000   93000          0.27191402     0.260934       353.95248      251.93198      102.0205       97.900863      298.7353       633.52066      59200.426      56067.777      28512.061      27555.717    
     94000   94000          0.27222041     0.27414293     349.1386       251.89485      97.243748      97.930518      297.79244      270.63461      57550.152      56211.911      28422.071      27789.84     
     95000   95000          0.27263964     0.26885192     355.527        256.24053      99.286474      97.907111      297.64128      157.44902      56966.74       56188.182      28407.645      27780.537    
     96000   96000          0.27270838     0.29728199     344.70016      254.88284      89.817328      97.91072       297.43036     -419.55637      54116.155      56190.787      28387.514      27803.273    
     97000   97000          0.27558801     0.28430576     341.43185      246.53052      94.901329      97.903368      298.22943      31.961728      56300.426      56142.381      28463.779      27678.602    
     98000   98000          0.27378962     0.28148324     342.17112      246.96205      95.209072      97.884495      297.29991      369.858        57912.493      56083.611      28375.063      27708.547    
     99000   99000          0.27223472     0.28868787     338.45533      246.14559      92.309742      97.888699      296.15293      125.07338      56703.196      56084.73       28265.592      27819.138    
    100000   100000         0.27049793     0.25791335     344.57952      241.9588       102.62072      97.846415      295.95442      8.0788815      56034.514      55994.565      28246.646      27747.918    
    101000   101000         0.27295183     0.27899181     354.05904      258.34902      95.710019      97.827925      297.72513     -137.81167      55514.155      56195.61       28415.648      27779.962    
    102000   102000         0.27316289     0.31857947     344.22335      260.32808      83.895272      97.84386       299.15062     -138.73015      55409.748      56095.744      28551.7        27544.044    
    103000   103000         0.27206131     0.25890085     348.84572      246.01441      102.83131      97.857038      296.47083     -285.75418      54630.055      56043.059      28295.934      27747.126    
    104000   104000         0.27189236     0.25338662     347.5116       242.50841      105.00319      97.85639       297.63425     -141.6218       55187.964      55888.259      28406.974      27481.285    
    105000   105000         0.27336859     0.26579359     352.56737      251.91974      100.64763      97.858697      297.08462      719.78502      59651.418      56092.208      28354.515      27737.693    
    106000   106000         0.27305758     0.26523429     354.23112      253.49345      100.73768      97.851473      297.20388     -465.25282      53766.391      56066.985      28365.899      27701.086    
    107000   107000         0.27135924     0.28460659     349.75614      256.47864      93.2775        97.831169      297.78785      603.94858      59099.764      56113.345      28421.634      27691.711    
    108000   108000         0.27106768     0.28155731     344.31011      250.12968      94.18043       97.824974      296.47217     -629.51995      52962.279      56075.145      28296.062      27779.082    
    109000   109000         0.27190746     0.3083258      350.3231       264.06364      86.259455      97.812746      297.48371     -196.67247      55012.571      55985.082      28392.606      27592.476    
    110000   110000         0.27192034     0.32082694     338.96229      256.08274      82.879547      97.785959      296.56792     -728.67906      52396.339      55999.529      28305.201      27694.328    
    111000   111000         0.27208091     0.25014572     354.92254      248.53434      106.3882       97.81117       297.16277      416.60351      58182.682      56122.651      28361.975      27760.676    
    112000   112000         0.27309933     0.2680772      352.75525      253.08958      99.665676      97.832884      297.88598      450.17391      58356.629      56130.598      28430.999      27699.599    
    113000   113000         0.2723916      0.25901828     352.27789      249.38923      102.88867      97.83725       296.07067     -307.84049      54510.986      56033.203      28257.742      27775.461    
    114000   114000         0.27092522     0.29092571     349.57556      258.4704       91.105161      97.83081       297.20686     -307.14362      54451.065      55969.837      28366.182      27603.654    
    115000   115000         0.27024114     0.25462593     355.49076      251.69227      103.79849      97.800752      297.48471     -87.022705      55523.617      55953.929      28392.701      27561.228    
    116000   116000         0.27161166     0.2541008      349.21828      244.68323      104.53505      97.795653      296.07325      162.76278      56734.234      55929.4        28257.988      27671.412    
    117000   117000         0.27065651     0.24821346     349.57496      242.92866      106.6463       97.803107      297.60568     -86.741338      55609.571      56038.492      28404.247      27634.245    
    118000   118000         0.2706075      0.31354068     338.36238      253.95724      84.405134      97.796413      296.21743     -519.07534      53584.96       56151.697      28271.749      27879.948    
    119000   119000         0.27222836     0.24403236     356.43438      247.30227      109.1321       97.828768      297.31936     -579.79215      53368.114      56235.084      28376.92       27858.164    
    120000   120000         0.27022474     0.24245935     359.88899      250.84973      109.03926      97.83556       298.76317     -532.82291      53425.188      56059.903      28514.721      27545.182    
    121000   121000         0.2663827      0.28405491     346.26357      254.51606      91.747503      97.834165      296.5692      -741.10711      52388.181      56052.826      28305.323      27747.503    
    122000   122000         0.27076989     0.29058303     347.97607      256.82651      91.149568      97.819286      296.33926     -104.80126      55642.555      56160.779      28283.377      27877.401    
    123000   123000         0.26983282     0.23410329     360.78695      248.02136      112.76559      97.8339        297.63143     -261.68117      54809.585      56103.552      28406.705      27696.847    
    124000   124000         0.26884954     0.25050376     358.32095      253.27305      105.0479       97.879632      298.6292       33.902818      56290.961      56123.318      28501.934      27621.383    
    125000   125000         0.26853825     0.25933891     352.76663      251.3901       101.37653      97.903668      297.34248      275.73175      57599.85       56236.405      28379.127      27857.278    
    126000   126000         0.26742644     0.22508612     354.27515      237.97381      116.30134      97.887917      296.53629     -100.06661      55572.098      56066.91       28302.182      27764.728    
    127000   127000         0.26753765     0.2810439      351.60159      258.42795      93.173644      97.877381      298.87732     -201.60091      55059.505      56056.387      28525.615      27530.771    
    128000   128000         0.26882998     0.29009723     336.66938      245.99059      90.678791      97.852426      296.41405     -237.36448      54796.026      55969.752      28290.515      27679.237    
    129000   129000         0.26869061     0.25868857     355.42114      253.78596      101.63518      97.8518        297.68978      430.96675      58205.909      56074.854      28412.274      27662.58     
    130000   130000         0.26947367     0.2856344      340.37927      248.06799      92.311282      97.847326      294.61269     -213.41685      54653.983      55709.292      28118.589      27590.704    
    131000   131000         0.26967437     0.23895714     361.28164      250.85055      110.43109      97.852449      297.73215      72.548867      56376.722      56017.981      28416.317      27601.664    
    132000   132000         0.27074506     0.26315071     349.80917      249.12136      100.68782      97.863544      296.81444      182.97774      56909.692      56004.899      28328.729      27676.17     
    133000   133000         0.26837019     0.27097792     342.72699      245.79898      96.928011      97.869853      294.89106     -318.6335       54401.064      55976.65       28145.157      27831.493    
    134000   134000         0.26960277     0.23078628     370.2496       255.93884      114.31076      97.852688      296.52869     -443.93399      53818.278      56013.453      28301.457      27711.997    
    135000   135000         0.26793383     0.28140745     345.88513      252.71011      93.175024      97.860529      295.96261     -354.14757      54278.982      56030.18       28247.428      27782.751    
    136000   136000         0.26711596     0.28273089     341.44415      248.98791      92.456232      97.860992      297.51706     -619.95136      52952.635      56018.186      28395.789      27622.397    
    137000   137000         0.26843824     0.25740107     356.38118      254.35262      102.02856      97.833523      297.01726      11.96077       56218.828      56159.685      28348.087      27811.597    
    138000   138000         0.26828993     0.29558862     340.40327      251.60276      88.800508      97.83602       295.76765     -307.31796      54523.508      56043.141      28228.821      27814.321    
    139000   139000         0.26809921     0.33566837     343.48957      265.35001      78.139559      97.833109      296.03127     -464.45872      53825.059      56121.726      28253.981      27867.745    
    140000   140000         0.26865773     0.26652139     350.25202      251.62312      98.628906      97.84462       297.19423      98.654104      56474.586      55986.759      28364.977      27621.782    
    141000   141000         0.26971961     0.23477731     360.05136      247.62892      112.42244      97.858058      299.29739      363.55603      57900.813      56103.092      28565.708      27537.384    
    142000   142000         0.26890773     0.26274082     344.10731      243.93282      100.17448      97.877167      297.83242      115.70613      56659.766      56087.62       28425.888      27661.732    
    143000   143000         0.26823724     0.24646557     354.70205      248.19354      106.5085       97.863663      297.59784      86.133123      56502.856      56076.943      28403.498      27673.445    
    144000   144000         0.26727145     0.26890472     342.44297      245.19388      97.249092      97.843373      296.06779      74.75325       56302.583      55932.942      28257.467      27675.475    
    145000   145000         0.26772353     0.27458803     352.50223      257.11702      95.385212      97.830915      296.68174      598.39589      59110.532      56151.569      28316.064      27835.505    
    146000   146000         0.26803372     0.27520108     346.31053      251.03412      95.276418      97.824159      295.14638      315.51244      57392.755      55832.602      28169.525      27663.076    
    147000   147000         0.2669816      0.290353       342.5308       252.55911      89.971692      97.84776       294.71971     -40.482589      55536.064      55736.243      28128.803      27607.44     
    148000   148000         0.26713614     0.27563086     341.68974      246.85302      94.836714      97.852446      294.39409      38.456804      56127.588      55937.426      28097.724      27839.701    
    149000   149000         0.26762586     0.30665641     337.26352      251.86122      85.4023        97.857371      296.67553     -112.27465      55388.375      55943.554      28315.471      27628.083    
    150000   150000         0.26785174     0.29796059     341.82469      253.85425      87.970438      97.859077      295.31259     -540.19601      53207.35       55878.524      28185.389      27693.135    
    151000   151000         0.2664953      0.30954946     338.45989      254.23303      84.226867      97.8343        294.59913     -213.03177      54812.137      55865.541      28117.294      27748.247    
    152000   152000         0.26636372     0.3098675      334.61159      250.50508      84.106509      97.84318       295.14283      461.49255      58169.713      55887.713      28169.187      27718.527    
    153000   153000         0.26733101     0.2585641      356.61668      255.46943      101.14726      97.830211      297.9732       263.29643      57236.014      55934.06       28439.324      27494.735    
    154000   154000         0.2675208      0.26047351     342.95396      242.45513      100.49883      97.851399      295.19238      239.45543      57144.727      55960.662      28173.916      27786.746    
    155000   155000         0.26837613     0.22333048     363.22278      245.61681      117.60597      97.866371      297.20035      461.44086      58176.247      55894.503      28365.562      27528.942    
    156000   156000         0.26696234     0.24449824     355.00915      248.11105      106.8981       97.902937      297.05445     -188.58927      55087.525      56020.066      28351.636      27668.43     
    157000   157000         0.26771114     0.24014695     357.18733      248.01982      109.16751      97.927362      297.78257     -95.305351      55538.782      56010.05       28421.13       27588.92     
    158000   158000         0.2657537      0.29215972     337.70531      248.61915      89.086157      97.938004      298.13301     -99.312485      55420.599      55911.681      28454.576      27457.105    
    159000   159000         0.26628109     0.23737824     363.36697      253.54315      109.82382      97.903254      298.49468      207.37173      57029.904      56004.487      28489.096      27515.391    
    160000   160000         0.26655884     0.26522032     348.9151       250.538        98.377096      97.883095      298.38882      413.74437      58103.201      56057.308      28478.992      27578.316    
    161000   161000         0.26611405     0.27619123     343.94091      249.65884      94.282064      97.85233       296.15226     -157.83707      55133.024      55913.5        28265.529      27647.971    
    162000   162000         0.26625299     0.29138104     340.76532      251.36898      89.396342      97.833262      296.03929      262.11961      57307.596      56011.46       28254.747      27756.713    
    163000   163000         0.26802646     0.27052609     348.28916      251.38638      96.902779      97.806497      296.80337      269.48917      57394.109      56061.533      28327.672      27733.861    
    164000   164000         0.26830014     0.2205179      364.1032       245.09049      119.01271      97.817442      297.98114     -551.99829      53337.663      56067.198      28440.082      27627.116    
    165000   165000         0.26722401     0.30893408     338.95968      254.35985      84.599836      97.804731      294.88677      317.35915      57459.82       55890.534      28144.747      27745.788    
    166000   166000         0.26906758     0.26455206     350.31585      250.84401      99.471844      97.802495      297.79868     -294.57353      54667.454      56124.068      28422.668      27701.401    
    167000   167000         0.26739724     0.25088942     351.36638      247.17355      104.19283      97.760467      294.43716     -301.18312      54408.512      55897.809      28101.835      27795.974    
    168000   168000         0.26675828     0.30454703     346.82631      261.20447      85.621845      97.750963      296.93519      11.652951      56148.199      56090.577      28340.254      27750.323    
    169000   169000         0.26769686     0.28241196     348.95127      256.2953       92.655969      97.7492        295.25277      80.503028      56441.746      56043.673      28179.679      27863.994    
    170000   170000         0.26730691     0.24863808     357.96025      252.86601      105.09423      97.754407      298.20473     -155.77803      55416.523      56186.818      28461.422      27725.396    
    171000   171000         0.26729242     0.32649087     333.86426      253.83145      80.032807      97.758029      297.58699     -760.26903      52373.85       56133.246      28402.463      27730.784    
    172000   172000         0.26729912     0.2495321      358.76867      254.0746       104.69407      97.735194      297.12586     -262.87011      54845.756      56145.603      28358.452      27787.15     
    173000   173000         0.26869913     0.304791       338.92097      252.80745      86.113522      97.680355      298.30264     -196.24403      55095.56       56065.952      28470.766      27595.186    
    174000   174000         0.26905392     0.24944939     341.98883      236.63528      105.35355      97.676995      297.18196     -344.82475      54386.842      56091.94       28363.806      27728.134    
    175000   175000         0.26912353     0.30132467     340.97764      253.73821      87.23943       97.677794      300.00996     -75.560725      55793.746      56167.381      28633.717      27533.663    
    176000   176000         0.26990178     0.24543058     361.01729      253.58025      107.43703      97.696034      296.45352     -256.44836      55024.497      56292.589      28294.282      27998.307    
    177000   177000         0.27006005     0.25989927     357.00595      255.48219      101.52376      97.70401       297.34717     -39.649685      56042.438      56238.499      28379.574      27858.925    
    178000   178000         0.26944057     0.26653983     348.18951      249.42243      98.767079      97.703772      297.02552     -139.95692      55523.227      56215.289      28348.875      27866.414    
    179000   179000         0.26886082     0.26355898     352.70525      253.01997      99.68528       97.719521      297.41361     -9.8044661      56084.106      56132.588      28385.915      27746.673    
    180000   180000         0.26858902     0.28975147     342.85739      252.26621      90.591188      97.728975      296.46346     -156.64579      55261.258      56035.844      28295.23       27740.614    
    181000   181000         0.2693549      0.26767179     353.80353      255.46695      98.336586      97.72211       299.23329     -266.70892      54927.741      56246.569      28559.591      27686.979    
    182000   182000         0.27205558     0.23918946     346.8247       235.66313      111.16157      97.732514      297.16225     -165.3671       55483.501      56301.212      28361.925      27939.287    
    183000   183000         0.27070505     0.28295856     354.23722      260.73033      93.506886      97.739492      297.94313      462.44415      58655.881      56369.176      28436.454      27932.722    
    184000   184000         0.27020001     0.25881192     359.06108      256.98676      102.07432      97.772207      300.23757     -235.32727      55206.337      56369.989      28655.441      27714.548    
    185000   185000         0.27029402     0.34984687     333.85922      258.3171       75.542128      97.775664      298.31398      10.681262      56284.067      56231.25       28471.849      27759.4      
    186000   186000         0.27080373     0.26309769     341.59184      240.9665       100.62534      97.761927      297.87288      372.33052      58039.027      56197.918      28429.749      27768.169    
    187000   187000         0.27129149     0.27728848     346.30972      250.649        95.660723      97.775336      295.95174     -40.320337      56102.539      56301.916      28246.391      28055.525    
    188000   188000         0.27065088     0.30795917     339.26272      253.34725      85.915474      97.758626      298.29766      368.73273      58169.949      56346.631      28470.291      27876.34     
    189000   189000         0.26985409     0.29975815     343.41752      255.41303      88.004491      97.756767      297.22866     -1381.1832      49545.194      56374.902      28368.263      28006.639    
    190000   190000         0.2690378      0.31865191     336.7721       254.24725      82.524848      97.743517      297.0564       133.95582      56793.825      56131.437      28351.822      27779.615    
    191000   191000         0.26975891     0.26420024     342.75891      242.95948      99.799431      97.742957      297.31257     -37.219841      55971.383      56155.429      28376.272      27779.156    
    192000   192000         0.27014926     0.27276946     345.60029      248.77892      96.821365      97.760444      297.83998     -521.4942       53647.713      56226.41       28426.609      27799.801    
    193000   193000         0.2682756      0.34157227     334.85474      258.06897      76.785764      97.764718      296.49142      309.24631      57779.123      56249.954      28297.899      27952.055    
    194000   194000         0.26888867     0.24749087     363.95389      257.76427      106.18961      97.739182      299.60956      498.04529      58720.948      56258.202      28595.502      27662.7      
    195000   195000         0.26969142     0.24237144     356.2722       247.51865      108.75355      97.736716      298.15979     -295.64321      54713.415      56175.318      28457.133      27718.186    
    196000   196000         0.2685906      0.29038242     341.71458      251.28268      90.4319        97.768999      297.24802     -256.60309      54727.407      55996.264      28370.112      27626.153    
    197000   197000         0.26852967     0.26306272     346.60285      246.80137      99.80148       97.769639      296.49965     -174.71144      55111.424      55975.341      28298.685      27676.656    
    198000   198000         0.26793219     0.2754651      347.02319      251.94523      95.077958      97.751073      296.52614      285.48699      57216.374      55804.691      28301.213      27503.478    
    199000   199000         0.26827768     0.29170761     337.16178      247.2541       89.907686      97.75974       295.33072      414.42664      57916.295      55867.028      28187.119      27679.909    
    200000   200000         0.26836351     0.25976707     358.14092      257.1592       100.98172      97.74699       297.4437       33.420393      56365.084      56199.826      28388.787      27811.039    
    201000   201000         0.26863708     0.23082561     359.20066      245.42556      113.7751       97.760919      298.28405      341.43039      57714.452      56026.139      28468.993      27557.146    
    202000   202000         0.26904013     0.23460084     350.43005      238.28312      112.14693      97.791225      295.60635      59.195627      56465.635      56172.923      28213.426      27959.497    
    203000   203000         0.26868072     0.25151992     355.26608      250.80249      104.46359      97.791435      297.73112      12.022396      56287.467      56228.019      28416.22       27811.799    
    204000   204000         0.26786043     0.25432907     354.25804      251.26537      102.99266      97.789842      297.55532     -594.45016      53031.863      55971.315      28399.44       27571.875    
    205000   205000         0.26873246     0.27844072     341.95816      247.58592      94.372237      97.781538      297.54946     -255.80473      54941.06       56205.969      28398.882      27807.087    
    206000   206000         0.26830513     0.26388005     349.57649      250.14853      99.427954      97.788119      299.39425     -84.030324      55981.449      56396.964      28574.953      27822.012    
    207000   207000         0.26834032     0.25444201     349.01665      245.91542      103.10123      97.761246      300.32073     -108.84027      55751.987      56290.183      28663.378      27626.805    
    208000   208000         0.26973666     0.23693209     354.48692      243.20527      111.28165      97.747905      299.47147     -226.18978      55161.88       56280.348      28582.322      27698.026    
    209000   209000         0.26896508     0.26623925     349.06539      250.31344      98.751954      97.751154      298.267       -290.71074      54849.537      56287.05       28467.366      27819.685    
    210000   210000         0.26962806     0.23020683     353.21081      238.70577      114.50504      97.76372       297.10475      151.79116      56983.75       56233.169      28356.437      27876.732    
    211000   211000         0.26820278     0.30088164     331.82468      244.65238      87.172298      97.793709      295.01759      101.34555      56503.551      56002.415      28157.233      27845.182    
    212000   212000         0.26824981     0.26014674     350.06333      249.21038      100.85295      97.806466      296.67181     -423.96393      54134.362      56230.789      28315.116      27915.673    
    213000   213000         0.26832072     0.29386169     339.41052      250.10863      89.301891      97.802379      296.25958      56.766618      56478.635      56197.934      28275.772      27922.163    
    214000   214000         0.26792919     0.28563716     347.39083      255.65803      91.732805      97.795608      298.94542      293.55108      57667.472      56215.913      28532.115      27683.798    
    215000   215000         0.26798479     0.26089832     348.11405      247.67721      100.43684      97.780929      297.93742     -259.70498      55022.755      56306.951      28435.909      27871.042    
    216000   216000         0.26876951     0.26429378     348.6456       249.22086      99.424741      97.769054      297.57874      521.0106       58936.8        56360.494      28401.676      27958.818    
    217000   217000         0.26799132     0.27799681     345.0071       250.7488       94.258308      97.777452      296.68422     -669.2472       52823.736      56133.046      28316.3        27816.746    
    218000   218000         0.26865399     0.27295281     351.20329      254.968        96.235293      97.775187      296.98293     -550.22142      53433.979      56154.728      28344.81       27809.918    
    219000   219000         0.26869372     0.23226328     357.31618      244.21353      113.10265      97.767792      298.98871      557.11573      58956.63       56201.79       28536.247      27665.544    
    220000   220000         0.26746095     0.30020493     344.0588       256.95358      87.105216      97.769098      299.18351      374.87419      58077.54       56223.853      28554.839      27669.014    
    221000   221000         0.26871236     0.26990426     351.22429      253.89174      97.332547      97.764276      298.66362      144.13021      56808.494      56095.795      28505.219      27590.576    
    222000   222000         0.26971161     0.24147372     355.40075      246.20492      109.19583      97.763398      298.15356     -248.18503      54939.521      56166.752      28456.538      27710.214    
    223000   223000         0.26950844     0.24324392     353.31466      245.00188      108.31278      97.757331      296.57915     -659.41185      52758.421      56019.096      28306.272      27712.824    
    224000   224000         0.26973243     0.25798223     347.3473       245.11825      102.22905      97.775703      295.32183     -304.70163      54606.923      56113.619      28186.271      27927.349    
    225000   225000         0.2693646      0.26929851     349.37667      251.55923      97.817442      97.793443      297.11445      246.58799      57296.655      56077.321      28357.363      27719.958    
    226000   226000         0.26857063     0.28248385     346.96228      253.98222      92.980059      97.796863      297.64815     -71.279913      55767.552      56120.019      28408.3        27711.718    
    227000   227000         0.2681586      0.26405457     348.31243      249.00361      99.308816      97.788948      298.70489      102.8994       56616.117      56107.298      28509.159      27598.139    
    228000   228000         0.26962195     0.25074005     351.99379      246.84702      105.14678      97.78324       297.69166     -97.158328      55701.649      56182.08       28412.453      27769.627    
    229000   229000         0.26950757     0.2980338      342.02404      253.60425      88.419783      97.778641      298.86354     -318.18054      54708.086      56281.433      28524.3        27757.133    
    230000   230000         0.2699756      0.24954291     352.29076      246.50273      105.78803      97.781628      297.96281      70.931631      56496.88       56146.135      28438.332      27707.803    
    231000   231000         0.26973514     0.25944287     354.18937      252.54874      101.64063      97.762335      297.99346      443.81615      58429.621      56235.028      28441.258      27793.77     
    232000   232000         0.2695787      0.28592676     334.57942      242.38008      92.199338      97.790583      296.88132     -124.17485      55340.125      55954.147      28335.112      27619.035    
    233000   233000         0.26943397     0.24937591     351.46925      245.82317      105.64609      97.781247      298.24973      53.740225      56385.951      56120.215      28465.716      27654.498    
    234000   234000         0.26889545     0.27258868     350.54809      254.09887      96.449214      97.773927      298.77644     -191.7004       55146.666      56094.591      28515.987      27578.603    
    235000   235000         0.26935293     0.27715961     340.7282       245.71307      95.015132      97.768964      298.23021      466.58495      58484.106      56176.926      28463.854      27713.071    
    236000   236000         0.26937213     0.25767788     355.0429       252.83299      102.2099       97.772668      299.84267      275.72259      57628.399      56264.999      28617.751      27647.247    
    237000   237000         0.26929481     0.23828027     359.7283       249.22631      110.50199      97.775535      296.92223      51.281998      56640.913      56387.332      28339.016      28048.316    
    238000   238000         0.26885165     0.29597933     343.72277      254.90231      88.820458      97.78262       297.86084      233.38667      57475.793      56321.737      28428.6        27893.137    
    239000   239000         0.26815173     0.28233084     350.11425      257.25312      92.861126      97.771359      296.28259      262.78785      57456.958      56157.518      28277.968      27879.55     
    240000   240000         0.2687544      0.25853482     345.52788      243.89989      101.62799      97.763515      297.38011     -222.36767      55066.164      56165.733      28382.719      27783.015    
    241000   241000         0.26921504     0.25899854     358.0353       256.41088      101.62442      97.767854      299.23716     -291.14743      54938.92       56378.593      28559.96       27818.633    
    242000   242000         0.26903615     0.27753803     349.00405      254.22353      94.780525      97.77571       299.28715     -554.32994      53579.113      56320.177      28564.731      27755.446    
    243000   243000         0.26857109     0.23412029     354.06622      241.89513      112.17109      97.782407      298.06278      460.77905      58474.601      56196.129      28447.874      27748.256    
    244000   244000         0.26810254     0.28384403     342.06444      249.71514      92.349301      97.771537      296.95185     -212.48721      55230.95       56281.662      28341.844      27939.817    
    245000   245000         0.2686494      0.27393413     347.03197      251.13779      95.894186      97.780569      299.22782     -90.886449      55955.225      56404.642      28559.069      27845.574    
    246000   246000         0.26759248     0.27578486     348.3272       253.45818      94.869016      97.773444      297.53982      13.346153      56465.886      56399.891      28397.961      28001.93     
    247000   247000         0.26846446     0.26595997     347.91344      249.22961      98.683831      97.763214      297.92878      269.22046      57687.763      56356.516      28435.085      27921.431    
    248000   248000         0.26894006     0.22357859     365.44886      247.83236      117.6165       97.778412      300.23021      212.83386      57493.226      56440.8        28654.739      27786.061    
    249000   249000         0.26886582     0.24371749     357.15078      249.27321      107.87757      97.787261      299.43651      220.94648      57602.667      56510.126      28578.986      27931.139    
    250000   250000         0.26867276     0.24738022     350.74489      244.5366       106.20829      97.791199      296.13054      380.66936      58309.394      56427.051      28263.456      28163.595    
    251000   251000         0.2686876      0.26525058     349.59121      250.52747      99.063744      97.796531      298.38611     -189.19736      55375.116      56310.664      28478.733      27831.931    
    252000   252000         0.2677167      0.27790228     345.91461      251.71206      94.202557      97.786601      299.85228     -540.31963      53579.179      56250.964      28618.668      27632.296    
    253000   253000         0.26831991     0.2434192      354.30796      246.5019       107.80606      97.801405      298.84474     -486.04814      53908.687      56312.109      28522.506      27789.603    
    254000   254000         0.26801011     0.26938883     352.75594      255.46575      97.290189      97.790678      298.51631     -400.91073      54440.064      56422.497      28491.16       27931.337    
    255000   255000         0.26905163     0.26029682     347.44931      246.37454      101.07477      97.785851      298.61287      96.68679       56991.978      56513.879      28500.376      28013.503    
    256000   256000         0.26915446     0.26270494     351.79885      251.59934      100.19951      97.798519      302.21987      45.844997      56699.177      56472.481      28844.637      27627.844    
    257000   257000         0.26896663     0.28770802     347.31445      255.8811       91.433353      97.804361      297.8065       188.06766      57313.68       56383.719      28423.414      27960.305    
    258000   258000         0.26846379     0.25638911     340.20547      237.79753      102.40794      97.801943      297.51695      239.32437      57394.074      56210.657      28395.778      27814.879    
    259000   259000         0.26812126     0.32344849     331.53932      250.46932      81.070002      97.798921      297.72769      365.86712      58078.055      56268.907      28415.892      27853.015    
    260000   260000         0.27014105     0.25504236     355.63071      252.04779      103.58292      97.79348       299.50607      75.992809      56792.187      56416.416      28585.625      27830.791    
    261000   261000         0.27038908     0.25720723     347.26264      244.44897      102.81367      97.801354      299.56921      132.94355      57174.314      56516.932      28591.652      27925.28     
    262000   262000         0.26945229     0.30579328     340.79033      254.61429      86.176034      97.798581      298.10791      134.28621      56934.585      56270.563      28452.181      27818.382    
    263000   263000         0.27074158     0.25447478     358.65923      254.59239      104.06684      97.814259      299.52191     -193.89091      55544.983      56503.74       28587.137      27916.602    
    264000   264000         0.27018205     0.28459433     344.84732      251.97596      92.871361      97.825386      299.86959      480.99912      58975.313      56596.857      28620.321      27976.536    
    265000   265000         0.26845106     0.26757261     355.30334      257.15331      98.150034      97.828859      299.12159      225.93242      57609.364      56492.168      28548.93       27943.238    
    266000   266000         0.26822752     0.29008828     345.96292      255.52234      90.440586      97.811567      298.51276     -1027.896       51478.709      56561.474      28490.821      28070.653    
    267000   267000         0.26892821     0.23676811     352.87896      241.78738      111.09157      97.806556      298.71481     -5.2502005      56532.829      56558.79       28510.105      28048.685    
    268000   268000         0.26932994     0.28305974     354.94212      261.87931      93.06281       97.806932      301.91116     -189.47126      55851.769      56788.671      28815.173      27973.498    
    269000   269000         0.26916137     0.25403199     362.94909      259.30136      103.64773      97.821762      301.75228     -693.7098       53328.787      56759.06       28800.009      27959.051    
    270000   270000         0.2680278      0.28057013     344.2731       250.8036       93.469501      97.843395      298.18999     -585.61779      53557.08       56452.857      28460.015      27992.842    
    271000   271000         0.26837198     0.332185       346.051        267.0199       79.031104      97.822983      299.33514     -429.03334      54318.94       56440.434      28569.311      27871.123    
    272000   272000         0.2684043      0.20980736     364.4675       239.31868      125.14882      97.826832      298.26684     -613.20734      53321.085      56353.287      28467.35       27885.938    
    273000   273000         0.26912361     0.27541785     350.28373      254.69354      95.590195      97.825849      297.40077      166.16195      57203.888      56382.247      28384.69       27997.557    
    274000   274000         0.26824662     0.32718623     336.30106      256.09016      80.210902      97.834981      296.6667      -444.42276      54078.893      56276.485      28314.628      27961.857    
    275000   275000         0.26830361     0.26840788     351.06585      253.26487      97.800983      97.838989      299.2577       110.14082      56999.658      56455.031      28561.92       27893.111    
    276000   276000         0.26803406     0.24698285     354.39988      248.2189       106.18098      97.8416        298.72217     -170.7386       55641.221      56485.493      28510.808      27974.685    
    277000   277000         0.26782035     0.23878973     362.19297      252.46959      109.72338      97.829822      299.04512      277.54041      57742.176      56369.787      28541.631      27828.157    
    278000   278000         0.26802406     0.23771984     355.99995      245.68952      110.31042      97.83814       299.57038      203.7626       57354.824      56347.254      28591.763      27755.49     
    279000   279000         0.26746803     0.30725714     338.32653      253.15731      85.169214      97.839167      296.54333     -153.03821      55411.97       56168.717      28302.854      27865.863    
    280000   280000         0.26746682     0.26951744     344.84641      247.76981      97.076602      97.820868      298.26985     -265.90619      54931.808      56246.667      28467.637      27779.03     
    281000   281000         0.26800041     0.25785107     350.1597       248.50421      101.65548      97.805726      300.07378      307.11137      57840.051      56321.439      28639.809      27681.63     
    282000   282000         0.26823439     0.2668587      349.58313      251.26418      98.318944      97.814698      298.68108      853.99356      60464.347      56241.499      28506.886      27734.613    
    283000   283000         0.26790848     0.25810165     356.36347      254.83043      101.53303      97.8164        299.88053      84.128401      56678.204      56262.204      28621.365      27640.839    
    284000   284000         0.26804412     0.265395       349.30403      250.49292      98.811107      97.834543      299.80705     -367.4624       54490.6        56307.637      28614.351      27693.286    
    285000   285000         0.26789187     0.32121884     338.22829      256.63289      81.595393      97.837898      297.84608     -377.453        54463.012      56329.451      28427.191      27902.26     
    286000   286000         0.26842734     0.2533363      355.33273      251.67412      103.65861      97.830902      299.53864      114.501        56882.331      56316.143      28588.734      27727.41     
    287000   287000         0.26844506     0.28243927     346.5396       253.55152      92.988086      97.835613      298.11568      555.76653      58972.918      56224.75       28452.923      27771.827    
    288000   288000         0.26858413     0.26804904     353.43177      255.40636      98.025413      97.830121      297.8533       217.29648      57373.209      56298.716      28427.88       27870.836    
    289000   289000         0.26906824     0.26000455     347.16299      245.92196      101.24103      97.830678      298.91831     -546.495        53629.817      56332.138      28529.528      27802.611    
    290000   290000         0.26854347     0.27878458     349.05362      254.81485      94.23877       97.832638      298.27969     -221.21995      55222.025      56315.918      28468.576      27847.342    
    291000   291000         0.26840407     0.23825296     355.49507      245.276        110.21907      97.837637      299.93769     -81.697547      55907.762      56311.742      28626.82       27684.922    
    292000   292000         0.26814819     0.29565061     345.75147      257.02732      88.724155      97.824083      299.70631     -947.72561      51705.736      56392.072      28604.737      27787.336    
    293000   293000         0.2684721      0.26787545     346.98893      248.95135      98.037574      97.819698      298.4546      -166.99616      55655.685      56481.452      28485.27       27996.181    
    294000   294000         0.26848715     0.30555006     349.41804      263.48         85.938038      97.801225      298.26398      63.041642      56702.899      56391.169      28467.076      27924.092    
    295000   295000         0.2691424      0.26311223     355.13624      255.09812      100.03812      97.796754      298.76569     -94.484205      55960.312      56427.52       28514.961      27912.559    
    296000   296000         0.26924895     0.28376035     357.03411      264.22669      92.807424      97.809359      301.78488      325.75205      58082.819      56472.032      28803.12       27668.912    
    297000   297000         0.26793268     0.26528325     340.98794      242.19888      98.789056      97.812189      296.8067      -280.27135      54855.932      56241.824      28327.99       27913.834    
    298000   298000         0.26832389     0.25072246     360.00644      255.32944      104.677        97.810427      300.14492     -14.230435      56320.655      56391.022      28646.599      27744.423    
    299000   299000         0.26918026     0.25742676     355.78319      253.50088      102.2823       97.81624       299.77398     -126.40208      55987.314      56612.35       28611.195      28001.155    
    300000   300000         0.26774271     0.32649364     342.18648      261.97394      80.212541      97.813624      299.72774     -465.30668      54130.256      56431.116      28606.782      27824.334    
    301000   301000         0.26788384     0.29036468     341.31876      251.08594      90.232817      97.805164      301.02814      208.4245       57445.425      56414.802      28730.895      27683.907    
    302000   302000         0.26814367     0.28538468     341.38375      249.48159      91.902158      97.81125       297.41394     -772.74393      52527.028      56348.111      28385.947      27962.164    
    303000   303000         0.26757405     0.27357352     341.19891      245.5592       95.639703      97.784112      300.42565     -3.6358742      56455.44       56473.419      28673.392      27800.027    
    304000   304000         0.26803753     0.2495225      355.64749      250.6217       105.02579      97.771002      300.58439     -549.00045      53794.9        56509.611      28688.543      27821.068    
    305000   305000         0.26811587     0.22671079     366.59062      250.96093      115.62969      97.77302       300.74539      390.68155      58447.632      56515.78       28703.909      27811.871    
    306000   306000         0.26735005     0.27749039     347.94435      253.7315       94.212852      97.786257      299.0671      -197.39679      55575.424      56551.516      28543.729      28007.787    
    307000   307000         0.26776143     0.22488288     360.02696      243.60808      116.41889      97.775899      299.08241      256.25719      57726.22       56459.073      28545.19       27913.883    
    308000   308000         0.2671646      0.27748363     348.79502      254.65095      94.144069      97.780309      300.40083      205.70948      57554.115      56536.918      28671.023      27865.895    
    309000   309000         0.26739142     0.2682022      340.24637      242.74485      97.50152       97.797165      297.64772     -570.50558      53616.649      56437.698      28408.259      28029.439    
    310000   310000         0.26716002     0.25230108     351.22054      247.65856      103.56198      97.802063      298.81359     -781.3844       52651.93       56515.738      28519.533      27996.206    
    311000   311000         0.26723064     0.31954763     330.82666      249.03442      81.792236      97.805084      299.81822     -371.34623      54626.997      56463.239      28615.418      27847.822    
    312000   312000         0.26803805     0.30986158     337.72148      253.11443      84.607052      97.808781      297.51162      310.89678      58026.892      56489.562      28395.269      28094.293    
    313000   313000         0.26830854     0.27777063     351.25761      256.77784      94.47977       97.811665      299.22544     -281.6408       54990.132      56382.797      28558.841      27823.956    
    314000   314000         0.26748066     0.29794239     346.3111       258.49421      87.816887      97.817816      297.63531      459.50882      58493.366      56221.176      28407.075      27814.101    
    315000   315000         0.26764426     0.3157851      338.50787      255.6048       82.903064      97.814734      298.21204     -625.73836      53179.326      56273.493      28462.12       27811.373    
    316000   316000         0.26786356     0.27507675     335.46101      240.20707      95.253936      97.81899       298.31561      198.11073      57226.865      56247.242      28472.005      27775.238    
    317000   317000         0.26732901     0.28256821     347.80284      255.27109      92.53175       97.806561      299.29089      273.81663      57662.993      56309.018      28565.088      27743.93     
    318000   318000         0.26746438     0.28043654     347.60164      254.31777      93.283875      97.808189      298.55403     -262.5412       55081.817      56380.037      28494.76       27885.276    
    319000   319000         0.26754335     0.25927577     356.01871      255.08166      100.93705      97.81791       301.85127      141.11355      57196.545      56498.764      28809.457      27689.307    
    320000   320000         0.26738516     0.29238877     340.54024      251.0825       89.457734      97.823069      297.52373      81.423424      56860.324      56457.7        28396.426      28061.274    
    321000   321000         0.26829505     0.2455542      357.14444      250.26726      106.87717      97.818195      300.67669     -93.683507      56167.303      56630.552      28697.352      27933.2      
[...]
    932000   932000         0.26642668     0.29545937     343.88581      255.78992      88.095882      97.695746      296.2477      -535.49116      53438.912      56086.822      28274.638      27812.184    
    933000   933000         0.26654795     0.28805319     339.11524      248.70999      90.405254      97.699201      296.62502      46.252594      56395.156      56166.445      28310.651      27855.794    
    934000   934000         0.26664012     0.24377604     355.1659       248.30426      106.86164      97.698375      297.71222     -484.1756       53805.346      56199.509      28414.416      27785.094    
    935000   935000         0.26634146     0.29508894     339.13318      250.95377      88.179416      97.697032      297.21266     -146.22509      55447.18       56170.238      28366.737      27803.501    
    936000   936000         0.26635808     0.25413151     352.97466      250.57703      102.39763      97.697299      298.65676     -501.61921      53527.154      56007.573      28504.565      27503.008    
    937000   937000         0.26629602     0.25938426     347.78177      247.47797      100.3038       97.700398      296.28473     -109.52032      55421.746      55963.305      28278.172      27685.133    
    938000   938000         0.26638624     0.26741348     344.85967      247.54057      97.319103      97.694384      297.14711     -418.60291      54057.831      56127.749      28360.48       27767.269    
    939000   939000         0.26621242     0.25782925     352.15419      251.28512      100.86907      97.692654      296.73977      289.34795      57489.258      56058.483      28321.602      27736.881    
    940000   940000         0.26608502     0.29114795     340.0483       250.76524      89.283054      97.692755      296.24508      543.39773      58670.758      55983.752      28274.388      27709.364    
    941000   941000         0.26612307     0.28073643     342.94079      250.33241      92.608385      97.693701      297.11976     -330.43279      54337.356      55971.288      28357.87       27613.418    
    942000   942000         0.26625578     0.25311385     351.32133      248.55394      102.76739      97.694963      298.15017      28.028576      56338.733      56200.137      28456.214      27743.923    
    943000   943000         0.26640445     0.28502588     346.22103      254.90304      91.31799       97.701037      296.00801     -30.103132      56008.921      56157.776      28251.761      27906.014    
    944000   944000         0.26618002     0.25094358     353.4786       249.8441       103.63451      97.702351      297.79727     -357.80198      54384.086      56153.354      28422.533      27730.821    
    945000   945000         0.26638163     0.28833214     351.52591      261.26053      90.26538       97.703469      298.79071     -150.14157      55457.879      56200.302      28517.349      27682.953    
    946000   946000         0.26633969     0.21813846     360.35071      241.05633      119.29438      97.7049        296.64377     -549.87661      53273.768      55992.811      28312.44       27680.371    
    947000   947000         0.26633846     0.24681947     353.24571      247.81099      105.43472      97.707791      298.83487     -36.274363      56146.929      56326.3        28521.564      27804.736    
    948000   948000         0.26637553     0.30043635     338.43797      251.80591      86.632056      97.709499      297.87239      655.56788      59412.712      56171.044      28429.702      27741.342    
    949000   949000         0.26641466     0.23448536     353.61879      242.60202      111.01677      97.711621      297.89768      260.0072       57522.408      56236.718      28432.117      27804.601    
    950000   950000         0.26637263     0.28034507     334.68926      241.84403      92.845223      97.715374      297.9525       19.910589      56118.664      56020.209      28437.348      27582.861    
    951000   951000         0.26627055     0.28507792     345.10685      253.84191      91.264934      97.711212      297.71594      61.613667      56460.742      56156.074      28414.77       27741.303    
    952000   952000         0.26636489     0.26736217     352.53309      255.18845      97.344642      97.709105      297.82037      264.46213      57508.612      56200.893      28424.737      27776.156    
    953000   953000         0.26646291     0.28041044     343.07795      250.22754      92.850408      97.710501      298.48827     -317.69101      54704.44       56275.366      28488.484      27786.882    
    954000   954000         0.2666089      0.26889843     346.70502      249.82862      96.876402      97.708337      299.72886     -67.178581      55973.523      56305.709      28606.888      27698.821    
    955000   955000         0.26661513     0.23923527     348.48217      239.5877       108.89447      97.711621      299.7916       45.645889      56502.294      56276.583      28612.877      27663.706    
    956000   956000         0.26674576     0.23029293     353.9847       240.80127      113.18343      97.716056      299.38776     -10.412678      56275.128      56326.617      28574.333      27752.283    
    957000   957000         0.26669813     0.21631426     365.5166       245.03276      120.48384      97.722367      299.6327       219.12567      57386.634      56303.096      28597.711      27705.385    
    958000   958000         0.26666742     0.27190793     350.86892      255.02612      95.842807      97.726295      298.4274      -84.746915      55971.61       56390.669      28482.674      27907.995    
    959000   959000         0.26669314     0.22685425     357.37632      242.48109      114.89523      97.732067      299.69353      250.08609      57546.595      56309.963      28603.517      27706.447    
    960000   960000         0.26634372     0.28564153     351.9044       260.77754      91.126855      97.729408      298.96699     -425.00413      54263.92       56365.49       28534.174      27831.316    
    961000   961000         0.26637864     0.25692134     351.06668      249.7444       101.32227      97.72501       299.29516     -149.30202      55561.909      56300.181      28565.495      27734.686    
    962000   962000         0.26647775     0.28314041     342.56378      250.59071      91.973074      97.724085      298.02585     -792.14875      52484.88       56401.917      28444.349      27957.568    
    963000   963000         0.26644962     0.31424106     343.64113      260.78331      82.857815      97.719513      298.3899       560.48016      59304.277      56532.801      28479.095      28053.706    
    964000   964000         0.26687222     0.24159554     356.16728      248.22401      107.94328      97.719478      300.54671      234.16685      57651.294      56493.38       28684.947      27808.433    
    965000   965000         0.26685485     0.28084607     347.99402      255.13806      92.855961      97.724406      299.25149     -253.53338      55248.903      56502.581      28561.328      27941.253    
    966000   966000         0.26686733     0.28545791     347.79406      256.43584      91.358226      97.722448      299.02521     -358.6767       54756.669      56530.262      28539.73       27990.532    
    967000   967000         0.26672356     0.24858976     354.73118      249.87739      104.85379      97.725073      300.711       -318.86855      54904.95       56481.699      28700.626      27781.072    
    968000   968000         0.26676887     0.27022963     342.51958      246.04548      96.474102      97.725646      297.82722     -384.05406      54307.803      56206.882      28425.391      27781.491    
    969000   969000         0.26675483     0.25206148     347.76447      244.34491      103.41956      97.723019      297.88599     -415.05849      54236.748      56289.139      28431.001      27858.138    
    970000   970000         0.26696166     0.25371315     351.03481      248.20902      102.8258       97.722858      298.99116      328.61367      57984.073      56359.136      28536.48       27822.656    
    971000   971000         0.26664851     0.24751605     354.09079      248.81344      105.27735      97.72353       300.61433     -5.8579261      56262.802      56291.768      28691.401      27600.367    
    972000   972000         0.26669504     0.2329075      358.84282      246.94107      111.90176      97.72495       297.63072      480.18742      58731.914      56357.471      28406.637      27950.834    
    973000   973000         0.26669451     0.24961909     362.50822      258.09742      104.41081      97.725784      300.89778     -17.898402      56210.551      56299.056      28718.454      27580.602    
    974000   974000         0.26655343     0.28346544     340.98673      249.09373      91.893005      97.723339      298.05995      9.4828825      56302.211      56255.32       28447.604      27807.716    
    975000   975000         0.26653722     0.23127389     363.05348      250.43366      112.61981      97.720018      298.25511      277.59839      57832.46       56459.785      28466.23       27993.555    
    976000   976000         0.26662851     0.37465299     326.24592      256.70221      69.543706      97.719323      297.5924      -42.746228      56024.671      56236.044      28402.98       27833.064    
    977000   977000         0.2666672      0.24762688     354.59651      249.36256      105.23395      97.720139      298.77501      216.31351      57342.12       56272.488      28515.851      27756.637    
    978000   978000         0.2665702      0.26538694     342.0332       243.87439      98.158804      97.723097      299.37563     -370.09975      54388.189      56218.267      28573.176      27645.092    
    979000   979000         0.2665106      0.27777818     345.74925      251.99203      93.757226      97.72111       296.51782     -102.07044      55501.761      56006.481      28300.419      27706.062    
    980000   980000         0.26677563     0.26691829     348.95625      251.28606      97.670189      97.722421      298.37228      334.91693      57766.328      56110.223      28477.413      27632.81     
    981000   981000         0.26667964     0.24142593     371.14965      263.20336      107.94629      97.724119      299.41887     -76.239568      55823.733      56200.724      28577.303      27623.421    
    982000   982000         0.26668105     0.23767491     355.50999      245.8567       109.65329      97.726615      297.05065      84.327715      56489.479      56072.493      28351.273      27721.22     
    983000   983000         0.2665888      0.29586855     342.92479      254.86718      88.057614      97.729082      295.14963      158.51753      56826.451      56042.61       28169.836      27872.774    
    984000   984000         0.26666386     0.27977475     342.69916      249.5505       93.148668      97.728448      297.98982     -546.75835      53375.004      56078.627      28440.91       27637.717    
    985000   985000         0.26651321     0.26299912     350.27351      251.2386       99.034911      97.729092      295.83186      194.33751      57070.189      56109.224      28234.949      27874.275    
    986000   986000         0.26653791     0.2780679      353.30072      259.62578      93.674936      97.727159      299.08043     -83.982509      55780.504      56195.782      28545.001      27650.782    
    987000   987000         0.26650515     0.26571134     352.14061      254.12405      98.016559      97.724608      297.74473     -434.55797      54043.843      56192.656      28417.518      27775.138    
    988000   988000         0.26660647     0.28317604     348.50532      256.4995       92.005816      97.723967      299.77358     -448.7874       54003.797      56222.972      28611.157      27611.815    
    989000   989000         0.2666523      0.24163179     356.34403      248.50193      107.8421       97.723062      298.33864      336.52164      57765.21       56101.17       28474.203      27626.967    
    990000   990000         0.26654287     0.25425597     351.07026      248.62377      102.44649      97.723986      295.24482     -57.224126      55775.11       56058.073      28178.921      27879.152    
    991000   991000         0.26658986     0.26909333     349.57581      252.76422      96.811597      97.720727      295.52582     -573.70452      53195.032      56031.9        28205.74       27826.16     
    992000   992000         0.26644525     0.25129878     356.74402      253.13164      103.61238      97.722387      298.7863       49.442799      56505.313      56260.827      28516.928      27743.899    
    993000   993000         0.266275       0.2622141      346.67604      247.44539      99.230653      97.717311      296.86524      147.82766      56827.877      56096.895      28333.577      27763.318    
    994000   994000         0.26651618     0.23350183     359.04665      247.51622      111.53043      97.714739      298.92553      215.42191      57308.775      56243.552      28530.217      27713.335    
    995000   995000         0.26660503     0.27976832     338.59101      245.47095      93.120059      97.717746      298.03448     -274.704        54847.082      56205.445      28445.173      27760.273    
    996000   996000         0.2666069      0.25122762     347.53914      243.83901      103.70012      97.718158      297.64819      552.04928      58819.283      56089.496      28408.304      27681.192    
    997000   997000         0.26672468     0.28086141     348.69066      255.88569      92.80497       97.723747      298.09104     -336.69686      54582.086      56246.993      28450.571      27796.422    
    998000   998000         0.26663784     0.29797357     336.09389      248.64845      87.445441      97.722178      298.43798      120.03465      56676.763      56083.213      28483.684      27599.529    
    999000   999000         0.26684446     0.23005479     355.9916       242.6443       113.34729      97.720176      297.21299     -556.81194      53372.965      56126.302      28366.767      27759.534    
   1000000   1000000        0.26691428     0.25438635     349.92786      247.39003      102.53783      97.725102      299.04348      148.11328      57012.312      56279.917      28541.475      27738.443    
   1001000   1001000        0.26676917     0.26819416     342.99612      245.7917       97.204422      97.723655      298.50058     -317.8626       54502.92       56074.695      28489.659      27585.036    
   1002000   1002000        0.26671524     0.25799382     348.59376      247.56505      101.02871      97.725139      297.44438     -603.19445      53044.453      56027.144      28388.852      27638.292    
   1003000   1003000        0.26681486     0.22280646     359.4231       242.39633      117.02677      97.724395      297.23281     -133.43185      55559.693      56219.49       28368.659      27850.831    
   1004000   1004000        0.26661238     0.26943983     344.65792      247.96488      96.693043      97.718483      296.99048     -164.09008      55250.621      56062.018      28345.531      27716.487    
   1005000   1005000        0.26648561     0.25181583     356.30836      252.89902      103.40933      97.716747      298.97821      33.105881      56283.436      56119.733      28535.245      27584.488    
   1006000   1006000        0.26637852     0.26988866     351.06859      254.62381      96.444781      97.715659      296.4938       176.66423      57036.567      56162.994      28298.127      27864.867    
   1007000   1007000        0.26622215     0.2884441      341.63899      251.45242      90.186567      97.714572      297.32057      118.98589      56643.867      56055.502      28377.035      27678.467    
   1008000   1008000        0.26635957     0.26325439     351.84687      252.97924      98.867636      97.715054      296.89453     -581.88992      53331.469      56208.813      28336.373      27872.44     
   1009000   1009000        0.26615196     0.29089519     343.81978      254.41557      89.404208      97.715809      296.53114     -216.48469      54973.02       56043.498      28301.69       27741.809    
   1010000   1010000        0.26631518     0.23889674     357.46012      248.53235      108.92777      97.713132      296.60382      255.08928      57381.417      56120.045      28308.627      27811.417    
   1011000   1011000        0.26629735     0.24760271     350.32244      245.23098      105.09146      97.713816      297.60069     -36.478425      55919.642      56100.021      28403.77       27696.251    
   1012000   1012000        0.26628657     0.29771277     340.55248      253.15528      87.397204      97.711514      296.52548     -363.71172      54336.271      56134.761      28301.15       27833.611    
   1013000   1013000        0.26644488     0.28624223     343.46157      252.50733      90.954233      97.712303      297.85962     -54.808201      56004.335      56275.352      28428.484      27846.868    
   1014000   1014000        0.2663816      0.2710142      353.11082      257.07188      96.03894       97.709138      297.3415       207.30937      57232.407      56207.298      28379.033      27828.266    
   1015000   1015000        0.26625558     0.24694942     350.48824      245.14026      105.34798      97.709207      296.77111     -307.21582      54515.689      56034.817      28324.593      27710.224    
   1016000   1016000        0.26637043     0.27563297     344.09985      249.67212      94.427732      97.711282      297.55458     -346.92655      54372.055      56087.545      28399.37       27688.175    
   1017000   1017000        0.26631859     0.3048784      335.29876      249.94723      85.351523      97.709421      297.52302     -228.57599      54861.991      55992.259      28396.358      27595.901    
   1018000   1018000        0.2660036      0.3248354      336.77911      256.7662       80.012912      97.709301      298.14782     -233.34959      54776.314      55930.187      28455.99       27474.197    
   1019000   1019000        0.26610357     0.33187324     333.78048      255.44007      78.340417      97.702889      296.42749     -182.54623      55101.505      56004.164      28291.798      27712.366    
   1020000   1020000        0.26640253     0.28540374     346.16366      254.96475      91.198916      97.703697      298.15253     -446.44834      54006.57       56214.179      28456.44       27757.739    
   1021000   1021000        0.26640912     0.27447933     345.21652      250.38389      94.832637      97.705358      298.84077      354.54523      57845.738      56092.575      28522.127      27570.447    
Loop time of 10599.4 on 32 procs for 1000000 steps with 32020 atoms

Performance: 8.151 ns/day, 2.944 hours/ns, 94.345 timesteps/s, 3.021 Matom-step/s
99.5% CPU use with 32 MPI tasks x 1 OpenMP threads

MPI task timing breakdown:
Section |  min time  |  avg time  |  max time  |%varavg| %total
---------------------------------------------------------------
Pair    | 6715.9     | 7523       | 8252.2     | 380.9 | 70.98
Bond    | 192.19     | 205.63     | 225.1      |  45.7 |  1.94
Kspace  | 1018.9     | 1752.1     | 2481.4     | 777.9 | 16.53
Neigh   | 337.96     | 350.28     | 353.71     |  20.6 |  3.30
Comm    | 350.75     | 488.91     | 678.43     | 369.4 |  4.61
Output  | 0.14832    | 0.15585    | 0.31048    |   7.1 |  0.00
Modify  | 165.8      | 251.86     | 363.93     | 383.8 |  2.38
Other   |            | 27.54      |            |       |  0.26

Nlocal:        1000.62 ave        1052 max         950 min
Histogram: 3 1 0 6 4 7 7 3 0 1
Nghost:          11131 ave       11287 max       11048 min
Histogram: 7 4 5 3 4 4 2 2 0 1
Neighs:         542938 ave      588383 max      489056 min
Histogram: 2 1 1 5 4 4 6 5 3 1

Total # of neighbors = 17374018
Ave neighs/atom = 542.59894
Ave special neighs/atom = 11.48782
Neighbor list builds = 28555
Dangerous builds = 0
Total wall time: 3:00:24
