LAMMPS (2 Aug 2023 - Development - patch_2Aug2023-439-g49f08e6231)
OMP_NUM_THREADS environment is not set. Defaulting to 1 thread. (src/comm.cpp:98)
  using 1 OpenMP thread(s) per MPI task
Reading data file ...
  orthogonal box = (-41.07686 -32.676339 -31.575799) to (41.07686 32.676339 31.575799)
  4 by 4 by 2 MPI processor grid
  reading atoms ...
  32020 atoms
  reading velocities ...
  32020 velocities
  scanning bonds ...
  3 = max bonds/atom
  scanning angles ...
  6 = max angles/atom
  scanning dihedrals ...
  15 = max dihedrals/atom
  scanning impropers ...
  1 = max impropers/atom
  reading bonds ...
  34010 bonds
  reading angles ...
  60000 angles
  reading dihedrals ...
  95910 dihedrals
  reading impropers ...
  10000 impropers
Finding 1-2 1-3 1-4 neighbors ...
  special bond factors lj:    0        0        0.5     
  special bond factors coul:  0        0        0.8333333333333334
     4 = max # of 1-2 neighbors
     8 = max # of 1-3 neighbors
    18 = max # of 1-4 neighbors
    22 = max # of special neighbors
  special bonds CPU = 0.080 seconds
  read_data CPU = 0.616 seconds
DEBUG: -31.5757989877164 -28.4182190889448 0 3.15757989877164
PPPM initialization ...
  using 12-bit tables for long-range coulomb (src/kspace.cpp:342)
  G vector (1/distance) = 0.23713698
  grid = 45 36 36
  stencil order = 5
  estimated absolute RMS force accuracy = 0.00028675184
  estimated relative force accuracy = 8.6354464e-07
  using double precision FFTW3
  3d grid and FFT values/proc = 7200 3240
Generated 10 of 10 mixed pair_coeff terms from arithmetic mixing rule
Neighbor list info ...
  update: every = 1 steps, delay = 0 steps, check = yes
  max neighbors/atom: 2000, page size: 100000
  master list distance cutoff = 14
  ghost atom cutoff = 14
  binsize = 7, bins = 12 10 10
  1 neighbor lists, perpetual/occasional/extra = 1 0 0
  (1) pair lj/charmm/coul/long, perpetual
      attributes: half, newton on
      pair build: half/bin/newton
      stencil: half/bin/3d
      bin: standard
Setting up Verlet run ...
  Unit style    : real
  Current step  : 0
  Time step     : 1
Per MPI rank memory allocation (min/avg/max) = 17.69 | 17.74 | 18.22 Mbytes
   Step          Time           Temp         Temp_hot      Temp_cold        Press         Enthalpy        TotEng         KinEng         PotEng    
         0   0              299.02528      314.78043      294.17014     -153.33602      55796.692      56554.912      28539.738      28015.174    
      1000   1000           299.34921      306.88277      302.48124     -533.94942      53910.169      56550.455      28570.654      27979.802    
      2000   2000           300.69825      311.94515      296.8697       293.70498      57997.453      56545.133      28699.41       27845.723    
      3000   3000           300.66594      298.90102      303.3049       304.79857      58051.772      56544.597      28696.326      27848.271    
      4000   4000           302.24223      310.93223      302.58512      50.633677      56790.187      56539.813      28846.771      27693.042    
      5000   5000           298.64446      300.61251      291.02009     -593.91796      53609.237      56546.057      28503.391      28042.667    
      6000   6000           300.70099      295.76503      300.52449     -2.0153206      56533.387      56543.353      28699.671      27843.681    
      7000   7000           299.95165      306.0922       311.93222     -241.02072      55351.872      56543.678      28628.153      27915.525    
      8000   8000           299.2205       309.1254       288.48079     -29.12992       56404.068      56548.111      28558.369      27989.741    
      9000   9000           298.40771      297.34255      306.05503     -542.18678      53869.292      56550.31       28480.795      28069.516    
     10000   10000          298.80037      303.56577      298.95382      74.129188      56914.001      56547.445      28518.272      28029.174    
Loop time of 106.835 on 32 procs for 10000 steps with 32020 atoms

Performance: 8.087 ns/day, 2.968 hours/ns, 93.602 timesteps/s, 2.997 Matom-step/s
99.4% CPU use with 32 MPI tasks x 1 OpenMP threads

MPI task timing breakdown:
Section |  min time  |  avg time  |  max time  |%varavg| %total
---------------------------------------------------------------
Pair    | 68.755     | 75.585     | 83.572     |  40.9 | 70.75
Bond    | 1.8825     | 2.0551     | 2.2006     |   5.9 |  1.92
Kspace  | 11.057     | 18.939     | 24.942     |  80.5 | 17.73
Neigh   | 3.2636     | 3.3844     | 3.4292     |   2.1 |  3.17
Comm    | 4.4532     | 5.5155     | 7.646      |  32.6 |  5.16
Output  | 0.00099371 | 0.0018821  | 0.0044433  |   1.6 |  0.00
Modify  | 0.050875   | 0.056458   | 0.063359   |   1.4 |  0.05
Other   |            | 1.298      |            |       |  1.21

Nlocal:        1000.62 ave        1047 max         950 min
Histogram: 2 2 3 1 5 8 4 2 4 1
Nghost:        11111.1 ave       11244 max       10988 min
Histogram: 4 3 2 4 2 7 3 2 4 1
Neighs:         542914 ave      601481 max      494271 min
Histogram: 2 2 3 6 4 8 4 1 1 1

Total # of neighbors = 17373263
Ave neighs/atom = 542.57536
Ave special neighs/atom = 11.48782
Neighbor list builds = 275
Dangerous builds = 0
WARNING: New thermo_style command, previous thermo_modify settings will be lost (src/output.cpp:904)
PPPM initialization ...
  using 12-bit tables for long-range coulomb (src/kspace.cpp:342)
  G vector (1/distance) = 0.23713698
  grid = 45 36 36
  stencil order = 5
  estimated absolute RMS force accuracy = 0.00028675184
  estimated relative force accuracy = 8.6354464e-07
  using double precision FFTW3
  3d grid and FFT values/proc = 7200 3240
Generated 10 of 10 mixed pair_coeff terms from arithmetic mixing rule
Setting up Verlet run ...
  Unit style    : real
  Current step  : 10000
  Time step     : 1
Per MPI rank memory allocation (min/avg/max) = 18.19 | 18.28 | 18.73 Mbytes
   Step          Time          kappa        kappa_inst      Temp_hot      Temp_cold      dTemp_step       dTemp           Temp          Press         Enthalpy        TotEng         KinEng         PotEng    
     10000   10000          0              0              303.25371      298.95382      4.2998944      0              298.80037      74.129188      56914.001      56547.445      28518.272      28029.174    
     11000   11000          0              0              308.02577      298.93238      9.0933825      0              301.10667     -32.968272      56383.171      56546.193      28738.39       27807.803    
     12000   12000          0              0              300.76116      291.27321      9.4879471      0              298.54187      346.01484      58258.109      56547.126      28493.599      28053.527    
     13000   13000          0              0              310.01915      303.87346      6.1456921      0              299.10981     -90.153837      56096.942      56542.737      28547.805      27994.932    
     14000   14000          0              0              314.37528      300.35796      14.017323      0              300.77936     -291.21801      55105.615      56545.637      28707.151      27838.485    
     15000   15000          0              0              314.59236      289.79856      24.793799      0              299.72333      138.20669      57231.353      56547.945      28606.361      27941.584    
     16000   16000          0              0              309.7392       295.18397      14.555237      0              300.64507     -614.33212      53509.116      56546.88       28694.335      27852.546    
     17000   17000          0              0              332.8999       305.15316      27.746734      0              300.58604      163.61128      57355.455      56546.426      28688.7        27857.726    
     18000   18000          0              0              314.93857      279.82449      35.114081      0              299.36223      85.123571      56966.155      56545.233      28571.897      27973.337    
     19000   19000          0              0              307.31641      283.4858       23.830616      0              300.03033     -215.06747      55480.769      56544.24       28635.662      27908.578    
     20000   20000          0              0              315.86233      289.31375      26.548585      29.994693      300.32969      77.481645      56929.971      56546.837      28664.234      27882.604    
Loop time of 108.676 on 32 procs for 10000 steps with 32020 atoms

Performance: 7.950 ns/day, 3.019 hours/ns, 92.017 timesteps/s, 2.946 Matom-step/s
99.4% CPU use with 32 MPI tasks x 1 OpenMP threads

MPI task timing breakdown:
Section |  min time  |  avg time  |  max time  |%varavg| %total
---------------------------------------------------------------
Pair    | 68.079     | 75.277     | 84.668     |  41.3 | 69.27
Bond    | 1.8691     | 2.0556     | 2.1863     |   5.8 |  1.89
Kspace  | 11.042     | 20.366     | 26.774     |  78.3 | 18.74
Neigh   | 3.3807     | 3.5023     | 3.549      |   2.1 |  3.22
Comm    | 4.2685     | 5.4161     | 7.523      |  31.8 |  4.98
Output  | 0.0017929  | 0.0019394  | 0.0026944  |   0.4 |  0.00
Modify  | 0.83785    | 1.799      | 2.636      |  42.3 |  1.66
Other   |            | 0.2585     |            |       |  0.24

Nlocal:        1000.62 ave        1048 max         942 min
Histogram: 2 1 2 4 2 6 5 6 2 2
Nghost:        11098.6 ave       11258 max       10985 min
Histogram: 3 2 5 8 3 3 5 2 0 1
Neighs:         542861 ave      596057 max      485811 min
Histogram: 1 2 1 4 6 6 7 3 0 2

Total # of neighbors = 17371540
Ave neighs/atom = 542.52155
Ave special neighs/atom = 11.48782
Neighbor list builds = 282
Dangerous builds = 0
PPPM initialization ...
  using 12-bit tables for long-range coulomb (src/kspace.cpp:342)
  G vector (1/distance) = 0.23713698
  grid = 45 36 36
  stencil order = 5
  estimated absolute RMS force accuracy = 0.00028675184
  estimated relative force accuracy = 8.6354464e-07
  using double precision FFTW3
  3d grid and FFT values/proc = 7200 3240
Generated 10 of 10 mixed pair_coeff terms from arithmetic mixing rule
Setting up Verlet run ...
  Unit style    : real
  Current step  : 20000
  Time step     : 1
Per MPI rank memory allocation (min/avg/max) = 18.44 | 18.53 | 18.98 Mbytes
   Step          Time          kappa        kappa_inst      Temp_hot      Temp_cold      dTemp_step       dTemp           Temp          Press         Enthalpy        TotEng         KinEng         PotEng    
     20000   20000          0.34057302     0.36775771     317.09123      289.31375      27.777482      29.994693      300.32969      77.481561      56929.97       56546.837      28664.234      27882.604    
     21000   21000          0.31588001     0.37800384     312.81261      285.78806      27.024549      32.339442      299.29911     -277.67242      55179.288      56552.329      28565.872      27986.457    
     22000   22000          0.29970728     0.24077315     321.09991      278.67249      42.427419      34.084534      300.75226     -121.85487      55942.215      56544.766      28704.565      27840.201    
     23000   23000          0.29964587     0.25043492     318.59191      277.80134      40.79057       34.09152       297.97437      353.99822      58299.843      56549.385      28439.436      28109.949    
     24000   24000          0.30072188     0.2447292      324.82655      283.08497      41.741579      33.969538      299.72509     -60.967792      56242.679      56544.154      28606.529      27937.624    
     25000   25000          0.29741332     0.30245842     308.95434      275.17984      33.774504      34.34743       299.46657      25.529004      56682.27       56556.034      28581.855      27974.178    
     26000   26000          0.30036156     0.51579542     308.3494       288.54429      19.805106      34.010288      300.13159      153.29926      57304.262      56546.224      28645.327      27900.897    
     27000   27000          0.29881249     0.26755043     325.23402      287.05287      38.181151      34.1866        299.93055      448.04018      58761.144      56545.664      28626.139      27919.526    
     28000   28000          0.29431875     0.31799879     312.57829      280.45433      32.123968      34.708571      300.00036     -236.99241      55375.132      56547.018      28632.801      27914.217    
     29000   29000          0.28804357     0.283026       316.20044      280.107        36.093445      35.464716      299.30306      83.12418       56959.194      56548.159      28566.25       27981.91     
     30000   30000          0.28142811     0.21328153     324.61733      276.72109      47.896239      36.298376      298.72547      86.885898      56982.122      56552.486      28511.122      28041.364    
     31000   31000          0.27953723     0.32104556     309.39435      277.57525      31.819108      36.543909      299.43218     -113.23118      55994.628      56554.537      28578.573      27975.964    
     32000   32000          0.27490127     0.20015674     325.08434      274.04742      51.036918      37.16019       299.61211     -132.55986      55895.108      56550.594      28595.746      27954.848    
     33000   33000          0.27051209     0.187668       327.19657      272.7633       54.433271      37.763129      299.05125      142.55981      57255.489      56550.556      28542.216      28008.339    
     34000   34000          0.26819961     0.21751641     322.21111      275.24738      46.963736      38.088732      299.59092     -22.124074      56429.479      56538.879      28593.723      27945.156    
     35000   35000          0.26707539     0.17575619     318.94646      260.82399      58.122465      38.249062      298.63425     -44.457921      56328.09       56547.926      28502.417      28045.51     
     36000   36000          0.265585       0.31676792     310.90983      278.66103      32.248793      38.463705      300.18112     -32.61223       56389.593      56550.854      28650.054      27900.8      
     37000   37000          0.26648339     0.27278229     317.08521      279.63636      37.448851      38.334034      300.3801      -879.34874      52190.476      56538.701      28669.045      27869.656    
     38000   38000          0.26449022     0.39808651     306.78228      281.12106      25.661214      38.622915      299.38896     -451.10338      54314.549      56545.176      28574.448      27970.728    
     39000   39000          0.26334059     0.21835049     314.18918      267.40484      46.784339      38.791526      300.08929      195.64504      57512.601      56545.17       28641.289      27903.881    
     40000   40000          0.26149523     0.22516859     322.70292      277.33521      45.36771       39.065276      301.33018     -78.104055      56156.448      56542.659      28759.723      27782.936    
     41000   41000          0.25933009     0.2478904      320.7304       279.52113      41.209273      39.391431      301.08324     -452.35516      54306.478      56543.295      28736.154      27807.141    
     42000   42000          0.25764898     0.23904418     315.41549      272.6812       42.734289      39.648451      300.14427     -336.35242      54880.653      56543.857      28646.537      27897.32     
     43000   43000          0.25553068     0.19235499     321.11596      268.00903      53.106931      39.977129      299.2619      -15.367988      56471.553      56547.545      28562.321      27985.223    
     44000   44000          0.2542046      0.2770992      315.35928      278.49385      36.865437      40.185674      298.47101     -339.92199      54863.337      56544.192      28486.837      28057.355    
     45000   45000          0.25431158     0.29665542     312.29202      277.85684      34.435181      40.168769      298.32917     -272.44669      55203.909      56551.11       28473.299      28077.811    
     46000   46000          0.25254255     0.24062589     323.75221      281.29883      42.453384      40.450146      299.59858      113.79679      57103.619      56540.914      28594.454      27946.459    
     47000   47000          0.25072317     0.23797772     325.11712      282.19133      42.925796      40.743674      300.43103     -418.55902      54471.559      56541.259      28673.906      27867.353    
     48000   48000          0.24780292     0.16210054     341.93023      278.91142      63.01881       41.223821      300.44996      432.16741      58678.098      56541.106      28675.712      27865.394    
     49000   49000          0.24459257     0.19019119     322.97071      269.25958      53.711127      41.764896      299.96055     -223.29297      55443.812      56547.957      28629.002      27918.955    
     50000   50000          0.24213294     0.26816837     327.23837      289.1452       38.09317       42.189151      299.64895     -374.2905       54692.085      56542.886      28599.262      27943.624    
     51000   51000          0.24002122     0.20499392     327.79033      277.95772      49.832616      42.560333      302.73207      385.16116      58446.889      56542.335      28893.523      27648.812    
     52000   52000          0.2384186      0.23823753     315.804        272.92502      42.878983      42.84642       298.82726      672.22672      59871.024      56546.982      28520.838      28026.144    
     53000   53000          0.23672641     0.15348927     334.33019      267.77581      66.554381      43.152697      299.21559     -52.366425      56292.138      56551.081      28557.901      27993.179    
     54000   54000          0.23522646     0.17279127     329.69505      270.57526      59.119789      43.427867      299.72726     -835.88295      52417.479      56550.774      28606.736      27944.038    
     55000   55000          0.23450973     0.24963311     315.42899      274.50741      40.921587      43.560595      298.36593      118.53411      57137.341      56551.211      28476.807      28074.403    
     56000   56000          0.23320989     0.2218026      328.34508      282.28889      46.056193      43.803387      299.83133      91.985033      56999.626      56544.776      28616.669      27928.107    
     57000   57000          0.23228146     0.19711473     321.70585      269.88129      51.824554      43.978471      298.72349     -412.98354      54504.818      56546.949      28510.934      28036.015    
     58000   58000          0.23134271     0.20764528     319.24377      270.04745      49.196319      44.156927      298.42952      87.893991      56982.984      56548.364      28482.877      28065.487    
     59000   59000          0.23019611     0.19382439     320.09426      267.38994      52.704323      44.376871      299.50216      342.64266      58238.517      56544.209      28585.252      27958.958    
     60000   60000          0.22922889     0.24768644     319.56322      278.32001      41.243207      44.564117      300.79516     -161.16817      55750.34       56547.288      28708.66       27838.629    
     61000   61000          0.22856103     0.27470947     318.17247      280.98634      37.186133      44.694335      299.03368     -265.45304      55229.281      56541.899      28540.539      28001.36     
     62000   62000          0.22780292     0.1492232      341.2587       272.80163      68.457073      44.843074      301.77364     -42.97983       56329.284      56541.812      28802.048      27739.764    
     63000   63000          0.22690825     0.17361571     333.99579      275.15674      58.839048      45.019884      300.14577     -686.67456      53155.361      56550.846      28646.68       27904.166    
     64000   64000          0.22539528     0.21494231     322.45131      274.92514      47.526162      45.322082      299.65423     -341.37913      54856.223      56544.283      28599.766      27944.517    
     65000   65000          0.22371015     0.1622184      332.38867      269.41565      62.973023      45.663477      299.77171      233.91443      57706.123      56549.457      28610.978      27938.479    
     66000   66000          0.22228903     0.14406894     342.26155      271.35533      70.906216      45.955409      301.13174      144.93662      57260.439      56543.753      28740.783      27802.969    
     67000   67000          0.22079389     0.16434252     330.50629      268.34719      62.159099      46.266602      300.64338      673.9327       59873.267      56540.788      28694.173      27846.615    
     68000   68000          0.2195654      0.19625688     319.21995      267.16887      52.051084      46.525469      299.76037      65.614407      56874.491      56550.039      28609.896      27940.143    
     69000   69000          0.21831992     0.17055602     328.17406      268.27947      59.89459       46.790889      298.8529      -214.04824      55493.941      56552.372      28523.285      28029.087    
     70000   70000          0.21714299     0.16523096     322.89859      261.07371      61.824872      47.0445        298.3576       449.17652      58767.208      56546.109      28476.012      28070.097    
     71000   71000          0.21626021     0.13189452     342.32164      264.87049      77.451154      47.236537      301.51203      254.75123      57804.229      56544.529      28777.079      27767.45     
     72000   72000          0.21561882     0.17673785     326.79305      268.99341      57.799635      47.377047      300.24277     -320.96653      54955.688      56542.811      28655.937      27886.874    
     73000   73000          0.21491387     0.20134528     321.23567      270.50002      50.735647      47.532452      298.69517     -165.51729      55731.033      56549.487      28508.231      28041.256    
     74000   74000          0.21390248     0.15513529     331.6271       265.77888      65.848222      47.757198      300.52656      520.33392      59121.261      56548.301      28683.024      27865.277    
     75000   75000          0.21252891     0.14489098     332.35643      261.85251      70.503928      48.065852      300.09199      122.27904      57152.698      56548.05       28641.546      27906.503    
     76000   76000          0.21167588     0.17390008     330.82613      272.0833       58.742833      48.259552      300.76441      316.58051      58112.623      56547.188      28705.724      27841.464    
     77000   77000          0.21128356     0.18474209     326.72898      271.43361      55.295375      48.349162      300.38163     -372.19995      54702.72       56543.183      28669.191      27873.992    
     78000   78000          0.21086454     0.21013359     317.15446      268.5407       48.613756      48.445239      298.2002      -121.24322      55946.458      56545.984      28460.989      28084.995    
     79000   79000          0.21066788     0.16708912     333.43029      272.29296      61.137333      48.490464      299.94903     -178.62295      55663.853      56547.113      28627.902      27919.21     
     80000   80000          0.21030096     0.26436159     328.43361      289.7919       38.641707      48.575067      298.75609      256.19254      57817.144      56550.317      28514.045      28036.272    
     81000   81000          0.20984624     0.20954424     324.26947      275.51899      48.750484      48.680324      298.8557       168.39214      57385.649      56552.979      28523.552      28029.427    
     82000   82000          0.20938023     0.1930657      325.61587      272.70444      52.911433      48.78867       300.26585     -113.92399      55983.349      56546.684      28658.14       27888.543    
     83000   83000          0.2093691      0.19936475     327.54226      276.30259      51.239665      48.791266      300.60827     -708.21853      53044.31       56546.327      28690.822      27855.505    
     84000   84000          0.2090576      0.20765019     320.87047      271.67532      49.195154      48.863966      300.03239      676.12228      59888.543      56545.237      28635.859      27909.379    
     85000   85000          0.20923753     0.19061808     324.63319      271.04235      53.590842      48.821945      299.71909      360.01699      58326.998      56546.778      28605.956      27940.821    
     86000   86000          0.20930203     0.23017284     319.95271      275.57135      44.381358      48.8069        298.59027     -1235.9597      50439.056      56550.659      28498.219      28052.44     
     87000   87000          0.20925065     0.20159227     325.0946       274.42112      50.673486      48.818883      300.34707      736.6795       60192.324      56549.573      28665.892      27883.681    
     88000   88000          0.20886212     0.17686232     326.68858      268.92962      57.758958      48.909697      299.539        317.55733      58118.914      56548.649      28588.768      27959.881    
     89000   89000          0.20855587     0.19048286     325.77237      272.14349      53.628883      48.981519      301.28755     -482.00542      54159.519      56542.951      28755.654      27787.297    
     90000   90000          0.20789693     0.18016908     327.91523      271.21636      56.698869      49.136767      298.94435      414.48311      58596.202      56546.656      28532.013      28014.643    
     91000   91000          0.20702804     0.16563816     336.10735      274.43446      61.672885      49.342993      299.83013      384.52813      58448.483      56547.059      28616.554      27930.505    
     92000   92000          0.20648465     0.1660461      329.51505      267.99368      61.521367      49.472845      299.91446      429.50765      58670.927      56547.087      28624.603      27922.484    
     93000   93000          0.20576653     0.12300145     352.36373      269.31282      83.050919      49.645503      300.5005       543.59563      59234.371      56546.386      28680.536      27865.85     
     94000   94000          0.20490935     0.13319896     342.877        266.18434      76.692665      49.853182      299.66551     -490.63923      54121.963      56548.088      28600.843      27947.245    
     95000   95000          0.20429228     0.19106913     324.24473      270.7804       53.464332      50.003766      300.15764     -431.25632      54418.1        56550.586      28647.813      27902.774    
     96000   96000          0.20373275     0.19456132     327.00662      274.50192      52.504698      50.141096      298.58827     -230.09888      55413.885      56551.683      28498.028      28053.655    
     97000   97000          0.20313516     0.20666484     321.88483      272.45512      49.429711      50.288602      299.33641      57.530453      56829.551      56545.073      28569.432      27975.641    
     98000   98000          0.2025792      0.17220035     325.83792      266.51526      59.322663      50.426615      298.80363     -202.67047      55548.927      56551.097      28518.582      28032.514    
     99000   99000          0.20209409     0.17629282     323.24583      265.30029      57.945541      50.54766       299.42208     -12.792869      56485.551      56548.81       28577.609      27971.201    
    100000   100000         0.20164911     0.16388182     326.19327      263.85942      62.333842      50.659203      299.8948      -186.81919      55621.061      56544.849      28622.727      27922.123    
    101000   101000         0.20084945     0.16095471     329.03063      265.56319      63.467439      50.860897      297.39622     -225.89386      55437.725      56554.731      28384.256      28170.475    
    102000   102000         0.20010102     0.15494445     330.09011      264.16079      65.929325      51.051131      299.63727      47.768044      56783.82       56547.616      28598.147      27949.468    
    103000   103000         0.19931783     0.17529938     324.71121      266.43728      58.273926      51.251729      299.29566      102.05461      57052.164      56547.522      28565.543      27981.979    
    104000   104000         0.19871163     0.15047925     340.18559      272.29992      67.885662      51.408079      301.43662     -307.32119      55023.022      56542.671      28769.882      27772.79     
    105000   105000         0.19818084     0.19462711     329.52052      277.03357      52.48695       51.545766      301.13335     -245.08603      55325.342      56537.249      28740.937      27796.312    
    106000   106000         0.1977352      0.14335538     341.88777      270.62862      71.259153      51.661935      298.81627     -194.38137      55587.013      56548.195      28519.789      28028.406    
    107000   107000         0.19730861     0.17073527     331.68978      271.85807      59.831711      51.773632      300.55725      635.36647      59685.42       56543.644      28685.952      27857.692    
    108000   108000         0.19674978     0.15679663     334.31754      269.16701      65.150527      51.920684      299.47905      78.149609      56933.687      56547.25       28583.047      27964.204    
    109000   109000         0.19611888     0.15483686     338.66113      272.68599      65.975136      52.087708      299.3184       139.542        57239.701      56549.69       28567.713      27981.977    
    110000   110000         0.19568616     0.16921447     335.86438      275.49494      60.369443      52.202892      300.4956       383.47833      58442.436      56546.203      28680.068      27866.135    
    111000   111000         0.19515691     0.16100323     339.8303       276.38199      63.448311      52.344462      299.83957      116.85096      57124.014      56546.207      28617.455      27928.751    
    112000   112000         0.19469071     0.15682673     341.07113      275.93311      65.138023      52.469804      300.12177     -31.31972       56389.846      56544.716      28644.389      27900.327    
    113000   113000         0.19420932     0.12036348     338.12895      253.25783      84.871119      52.599861      299.09401      123.47025      57157.224      56546.685      28546.297      28000.388    
    114000   114000         0.19383902     0.14595482     338.62102      268.63098      69.990037      52.700346      301.61514      123.20287      57155.573      56546.356      28786.92       27759.436    
    115000   115000         0.19351259     0.17508436     330.11577      271.77028      58.345491      52.789244      301.22937      158.98268      57332.883      56546.742      28750.101      27796.641    
    116000   116000         0.19319775     0.19911948     321.53298      270.2302       51.302781      52.87527       298.35698      189.95663      57487.807      56548.505      28475.953      28072.552    
    117000   117000         0.19304399     0.16144767     335.844        272.57035      63.27365       52.917385      299.3655      -186.30362      55622.2        56543.438      28572.209      27971.229    
    118000   118000         0.1928129      0.19724508     323.4367       271.64639      51.790307      52.980807      298.52938     -11.149651      56491.069      56546.202      28492.407      28053.795    
    119000   119000         0.19254264     0.19719759     320.011        268.20822      51.802779      53.055173      300.14288     -326.98755      54932.792      56549.688      28646.404      27903.285    
    120000   120000         0.19226884     0.16405508     334.69662      272.42861      62.26801       53.130726      300.76563      59.450347      56832.448      56538.476      28705.841      27832.636    
    121000   121000         0.19199672     0.19108904     326.31128      272.85252      53.458761      53.206029      297.49215      220.34561      57645.042      56555.472      28393.412      28162.06     
    122000   122000         0.19151245     0.22853688     318.76105      274.06199      44.699057      53.34057       299.96643     -419.55113      54473.26       56547.867      28629.563      27918.303    
    123000   123000         0.19108097     0.15009082     341.88767      273.82632      68.061344      53.461018      301.71283      10.638528      56591.412      56538.806      28796.244      27742.562    
    124000   124000         0.19084085     0.16317686     331.22005      268.61691      62.603136      53.528285      299.20017     -180.89016      55653.4        56547.87       28556.429      27991.441    
    125000   125000         0.19074541     0.1768034      335.15466      277.37645      57.778207      53.555066      298.11871     -338.76957      54879.768      56554.924      28453.212      28101.712    
    126000   126000         0.19062649     0.18002699     334.28991      277.54629      56.743621      53.588475      300.63299     -534.26089      53905.349      56547.175      28693.181      27853.994    
    127000   127000         0.19042279     0.14538015     334.43165      264.16495      70.2667        53.645802      300.8117       609.06783      59558.744      56547.011      28710.238      27836.773    
    128000   128000         0.19021597     0.19537667     318.09826      265.81268      52.285582      53.704131      299.37145      414.53582      58599.488      56549.681      28572.776      27976.905    
    129000   129000         0.19015387     0.16983241     330.78423      270.63444      60.149787      53.72167       301.3782      -239.32876      55355.716      56539.155      28764.306      27774.848    
    130000   130000         0.18997804     0.24171871     318.70458      276.44313      42.26145       53.771389      300.00893     -377.25664      54677.57       56543.038      28633.62       27909.419    
    131000   131000         0.18983951     0.16470503     335.49154      273.46925      62.022289      53.810627      300.71629      204.13999      57554.902      56545.466      28701.132      27844.334    
    132000   132000         0.18956985     0.16680399     334.17063      272.92879      61.241839      53.887173      297.88903     -317.09412      54982.044      56550.019      28431.291      28118.728    
    133000   133000         0.18940515     0.16505598     343.75103      281.86062      61.890415      53.934031      301.1446      -103.0665       56039.784      56549.43       28742.01       27807.419    
    134000   134000         0.18934713     0.1497893      336.62255      268.4242       68.19835       53.950558      301.15802      497.14734      59001.775      56543.469      28743.291      27800.178    
    135000   135000         0.18915323     0.15917105     332.93088      268.75222      64.178651      54.005861      300.12491     -317.0186       54979.699      56547.301      28644.689      27902.612    
    136000   136000         0.18896117     0.14527905     340.75492      270.43933      70.315598      54.060754      298.79912      358.61806      58325.179      56551.876      28518.152      28033.723    
    137000   137000         0.18878441     0.15232        338.28236      271.21708      67.06528       54.11137       299.85984      66.509498      56876.635      56547.757      28619.39       27928.367    
    138000   138000         0.18856145     0.14074677     333.26769      260.68781      72.579877      54.175353      298.74911      189.48082      57490.836      56553.887      28513.379      28040.508    
    139000   139000         0.18836657     0.18634366     328.1879       273.36777      54.820127      54.231403      301.15392      317.90899      58113.451      56541.447      28742.9        27798.546    
    140000   140000         0.1882139      0.17148296     328.95116      269.38032      59.570835      54.275391      299.78662      323.84086      58148.105      56546.769      28612.402      27934.367    
    141000   141000         0.18808311     0.17008003     326.8007       266.73848      60.062215      54.313133      300.90344     -96.389667      56068.291      56544.921      28718.994      27825.927    
    142000   142000         0.18793105     0.18560811     327.05637      272.01899      55.037375      54.357081      298.81386     -138.7366       55866.495      56552.523      28519.559      28032.964    
    143000   143000         0.18786215     0.21590394     317.63623      270.32175      47.314483      54.377015      299.73652     -248.99052      55316.438      56547.652      28607.62       27940.032    
    144000   144000         0.18759971     0.16133187     328.77178      265.45271      63.319065      54.453085      298.98497     -72.503096      56186.991      56545.506      28535.89       28009.616    
    145000   145000         0.18726471     0.13697348     342.80694      268.22766      74.57928       54.550498      299.68221     -179.69563      55656.209      56544.772      28602.436      27942.336    
    146000   146000         0.18687492     0.16170817     339.33962      276.1679       63.171721      54.664281      299.18589      577.94982      59403.947      56546.087      28555.067      27991.021    
    147000   147000         0.1864979      0.20254084     318.84079      268.40463      50.436164      54.774789      299.61452      606.05343      59547.768      56550.941      28595.976      27954.965    
    148000   148000         0.18625463     0.14045313     329.21889      256.48728      72.731615      54.84633       299.2608      -142.06763      55850.493      56552.992      28562.216      27990.776    
    149000   149000         0.18587641     0.14819354     336.26317      267.33046      68.932714      54.957931      300.95641      284.18735      57949.291      56544.035      28724.049      27819.985    
    150000   150000         0.18550548     0.16669519     330.76784      269.48603      61.281812      55.067824      297.90449     -17.71328       56466.828      56554.417      28432.767      28121.65     
    151000   151000         0.18511305     0.13859163     329.7523       256.04379      73.708516      55.184566      299.41944     -127.7164       55918.116      56549.651      28577.357      27972.294    
    152000   152000         0.18474442     0.14487945     338.90707      268.39753      70.50954       55.294677      298.96612     -358.27347      54775.78       56547.38       28534.091      28013.289    
    153000   153000         0.18450082     0.14565081     338.65214      268.51601      70.136122      55.367684      298.56223      446.24088      58756.843      56550.261      28495.543      28054.718    
    154000   154000         0.18410839     0.10986716     345.26493      252.28552      92.979401      55.485702      299.39135     -63.939191      56235.645      56551.813      28574.676      27977.137    
    155000   155000         0.18373641     0.13947545     342.82499      269.58355      73.241445      55.598035      300.39942      355.96241      58304.429      56544.257      28670.889      27873.369    
    156000   156000         0.18340065     0.17189126     332.19993      272.77059      59.429336      55.699819      299.54643      651.17319      59769.03       56549.093      28589.477      27959.616    
    157000   157000         0.18318697     0.131087       338.25287      260.32459      77.928273      55.764791      295.94776     -88.14672       56122.932      56558.803      28246.011      28312.791    
    158000   158000         0.18295859     0.18536556     332.10041      276.99102      55.109391      55.834402      302.23855      781.6786       60407.202      56541.938      28846.42       27695.519    
    159000   159000         0.18277463     0.1344107      335.55745      259.55619      76.001266      55.890597      299.16772     -89.328873      56108.82       56550.536      28553.332      27997.204    
    160000   160000         0.18263858     0.23971735     311.60163      268.98734      42.614284      55.932231      298.69096     -574.48407      53705.991      56546.714      28507.829      28038.885    
    161000   161000         0.1825535      0.16651932     328.89173      267.5452       61.346534      55.958299      299.16938     -361.90333      54758.734      56548.282      28553.491      27994.792    
    162000   162000         0.18231979     0.16483053     330.67432      268.69925      61.975068      56.03003       300.49023      411.69291      58584.407      56548.658      28679.555      27869.103    
    163000   163000         0.18208016     0.17603058     328.93042      270.89855      58.031867      56.10377       298.75038      273.28417      57900.872      56549.53       28513.5        28036.029    
    164000   164000         0.18195727     0.18577262     321.0668       266.07816      54.988638      56.141659      299.45837     -30.011551      56399.424      56547.826      28581.073      27966.753    
    165000   165000         0.18191002     0.14696911     336.74456      267.23755      69.507008      56.156243      300.99929     -503.2756       54061.641      56550.25       28728.142      27822.108    
    166000   166000         0.18179927     0.16474399     332.55535      270.54773      62.007624      56.190451      298.68248      259.34852      57835.206      56552.773      28507.019      28045.754    
    167000   167000         0.18162502     0.17353822     328.6302       269.76488      58.86532       56.244359      297.16183      105.07418      57069.719      56550.146      28361.885      28188.261    
    168000   168000         0.18145184     0.17434565     328.11281      269.52011      58.592704      56.29804       299.1086       121.52045      57152.119      56551.222      28547.69       28003.532    
    169000   169000         0.18116381     0.16365564     329.31893      266.89894      62.419987      56.38755       300.55495     -726.49386      52950.457      56542.842      28685.733      27857.109    
    170000   170000         0.18095245     0.13335265     348.44884      271.84456      76.604277      56.453412      300.01809     -306.26074      55027.326      56541.731      28634.494      27907.238    
    171000   171000         0.18066765     0.13617487     341.16896      266.1523       75.016655      56.542403      299.65591     -299.46953      55067.637      56548.461      28599.926      27948.535    
    172000   172000         0.1805688      0.16084428     330.47196      266.96094      63.511012      56.573356      301.17293      72.719382      56902.475      56542.891      28744.715      27798.176    
    173000   173000         0.18031157     0.14166087     337.89864      265.7871       72.11154       56.654064      299.846       -128.36685      55913.249      56548.001      28618.068      27929.932    
    174000   174000         0.18011683     0.15756643     332.19952      267.36729      64.83223       56.715316      302.10173      21.672203      56651.069      56543.904      28833.362      27710.542    
    175000   175000         0.17996075     0.12706739     339.38063      258.9872       80.393431      56.764506      298.82608     -165.61963      55728.514      56547.474      28520.725      28026.748    
    176000   176000         0.17992185     0.17432643     332.09924      273.50007      58.599166      56.77678       299.56005      151.67324      57299.269      56549.271      28590.777      27958.494    
    177000   177000         0.17988562     0.14073856     335.98422      263.40011      72.58411       56.788216      298.64034     -413.40804      54504.973      56549.203      28502.997      28046.206    
    178000   178000         0.17979478     0.14600454     336.3702       266.404        69.9662        56.816906      297.77682      968.40229      61340.232      56551.653      28420.581      28131.073    
    179000   179000         0.17977478     0.16873689     331.7584       271.21809      60.540308      56.823228      300.15542     -86.742785      56114.979      56543.907      28647.601      27896.306    
    180000   180000         0.17971624     0.12172576     344.14902      260.22772      83.921295      56.841737      298.92123     -362.25865      54762.682      56553.987      28529.806      28024.181    
    181000   181000         0.17961021     0.13203323     336.76957      259.39978      77.36979       56.875291      298.84038      321.28773      58140.329      56551.618      28522.09       28029.528    
    182000   182000         0.17949292     0.14780898     335.71283      266.60076      69.112061      56.912456      301.13193      334.58703      58198.215      56543.741      28740.801      27802.94     
    183000   183000         0.17947068     0.19468863     331.44196      278.97159      52.470363      56.919511      298.96822     -1068.3071      51268.411      56551.001      28534.292      28016.71     
    184000   184000         0.17948679     0.18370811     321.57961      265.97301      55.606599      56.914403      301.2248       21.261457      56648.528      56543.394      28749.665      27793.729    
    185000   185000         0.17946634     0.14616589     337.27755      267.38858      69.888966      56.920887      300.1193      -461.31763      54268.307      56549.441      28644.154      27905.288    
    186000   186000         0.17935815     0.14496883     343.31965      272.85358      70.466067      56.955223      300.02263     -35.535525      56371.078      56546.795      28634.927      27911.868    
    187000   187000         0.17929209     0.22073477     319.29188      273.01288      46.278993      56.976207      298.41919     -212.51954      55500.508      56551.38       28481.891      28069.49     
    188000   188000         0.17924312     0.16744052     326.59113      265.5821       61.009026      56.991772      299.93684      302.76438      58045.39       56548.274      28626.739      27921.535    
    189000   189000         0.17912089     0.15991751     332.26828      268.3892       63.879077      57.030662      298.69015     -281.2622       55156.925      56547.717      28507.751      28039.965    
    190000   190000         0.1789832      0.13896791     338.84829      265.33936      73.508934      57.074536      298.83847      125.41729      57174.345      56554.178      28521.907      28032.271    
    191000   191000         0.1788868      0.16430407     335.78538      273.61174      62.173646      57.105293      301.02493      59.3545        56838.539      56545.042      28730.589      27814.452    
    192000   192000         0.17882195     0.18085036     322.56339      266.07811      56.485278      57.126002      298.49002     -646.45571      53354.688      56551.298      28488.651      28062.647    
    193000   193000         0.17874591     0.1439917      340.23617      269.29192      70.944251      57.150304      301.22362     -683.1646       53169.747      56547.875      28749.553      27798.323    
    194000   194000         0.17871119     0.15993199     324.43143      260.55813      63.873293      57.161407      299.54217      173.35976      57406.685      56549.452      28589.07       27960.381    
    195000   195000         0.17854471     0.15422773     334.00692      267.77121      66.235711      57.214706      300.09993      334.78281      58196.909      56541.467      28642.305      27899.162    
    196000   196000         0.17840594     0.16551018     320.00641      258.28584      61.720572      57.259209      298.57432     -518.34861      53982.274      56545.416      28496.697      28048.72     
    197000   197000         0.17825962     0.13342547     333.81732      257.25485      76.562466      57.306208      298.2604      -57.281054      56271.332      56554.577      28466.735      28087.842    
    198000   198000         0.17806239     0.16836867     329.11923      268.44652      60.672707      57.369686      300.25         435.84269      58702.376      56547.211      28656.627      27890.583    
    199000   199000         0.17793872     0.16825253     328.20361      267.48902      60.71459       57.409557      299.25681     -167.03987      55723.379      56549.362      28561.835      27987.526    
    200000   200000         0.17781434     0.19911748     318.5455       267.2422       51.303297      57.449715      298.4541       311.69761      58093.371      56552.081      28485.223      28066.858    
    201000   201000         0.17776964     0.14039261     340.83104      268.06807      72.762969      57.46416       299.74686     -420.78296      54470.991      56551.689      28608.606      27943.083    
    202000   202000         0.17766569     0.16356099     330.95122      268.49511      62.456108      57.497783      299.87119     -28.808192      56407.343      56549.795      28620.473      27929.322    
    203000   203000         0.1776458      0.14677351     338.51867      268.91903      69.599639      57.504221      300.76797     -378.72641      54669.925      56542.661      28706.064      27836.596    
    204000   204000         0.17764522     0.20510297     327.29296      277.48684      49.806121      57.504407      299.55361      235.40654      57708.129      56544.085      28590.162      27953.923    
    205000   205000         0.17762982     0.16947701     331.84659      271.57067      60.275923      57.509395      299.12666     -347.13849      54831.61       56548.149      28549.414      27998.736    
    206000   206000         0.17749033     0.16569399     330.85894      269.20683      61.652106      57.55459       300.43873      97.886935      57031.508      56547.475      28674.64       27872.834    
    207000   207000         0.17742937     0.15804831     336.53226      271.8977       64.634562      57.574364      300.01649      424.4947       58645.209      56546.157      28634.341      27911.816    
    208000   208000         0.17742083     0.14968345     330.57485      262.32827      68.246575      57.577136      299.88482     -261.71149      55244.044      56538.161      28621.774      27916.387    
    209000   209000         0.17732944     0.14946482     333.60605      265.25964      68.346406      57.606809      301.5145       402.2992       58533.587      56544.288      28777.314      27766.974    
    210000   210000         0.17722171     0.1539637      336.64097      270.29167      66.349297      57.641827      299.19361     -53.935735      56284.905      56551.608      28555.803      27995.805    
    211000   211000         0.17719241     0.15549113     330.84788      265.15034      65.697532      57.651358      299.31036     -139.48242      55865.902      56555.618      28566.946      27988.672    
    212000   212000         0.17712085     0.18764664     326.04448      271.60502      54.439466      57.674652      297.58184      320.51859      58142.775      56557.867      28401.972      28155.896    
    213000   213000         0.17701976     0.16691711     327.72696      266.52663      61.200334      57.707586      299.40921     -95.552527      56077.052      56549.542      28576.38       27973.162    
    214000   214000         0.17687012     0.15523285     331.04123      265.23439      65.806839      57.756409      300.96936      236.23977      57714.587      56546.423      28725.286      27821.137    
    215000   215000         0.17676514     0.20435372     318.39073      268.402        49.988731      57.790713      299.3025      -174.48714      55690.71       56553.519      28566.196      27987.322    
    216000   216000         0.1766369      0.1395889      341.77971      268.5978       73.181914      57.832667      299.15728     -100.65903      56056.215      56553.956      28552.335      28001.621    
    217000   217000         0.17651445     0.16531495     330.0793       268.28583      61.793464      57.872786      299.94651     -605.35098      53557.817      56551.171      28627.662      27923.509    
    218000   218000         0.17637091     0.1376429      336.76409      262.54752      74.216563      57.919887      300.80541      210.09393      57585.746      56546.868      28709.637      27837.231    
    219000   219000         0.1762605      0.14165125     337.36414      265.24771      72.116435      57.956167      299.6867       485.15921      58946.092      56547.065      28602.865      27944.2      
    220000   220000         0.17614101     0.15567911     324.16406      258.54586      65.618202      57.995484      299.45428     -652.84395      53316.56       56544.759      28580.682      27964.077    
    221000   221000         0.17604756     0.14606596     332.20013      262.26335      69.936783      58.026271      299.40935     -281.74368      55157.324      56550.497      28576.394      27974.103    
    222000   222000         0.17593835     0.19251198     324.90625      271.84263      53.063622      58.062287      299.61898     -54.742953      56279.331      56550.025      28596.402      27953.623    
    223000   223000         0.17586433     0.1549447      333.32068      267.39147      65.929219      58.086727      300.39955     -421.34225      54464.982      56548.445      28670.901      27877.543    
    224000   224000         0.17579324     0.15395688     335.7405       269.38826      66.352237      58.110216      299.63307     -505.33623      54051.337      56550.135      28597.746      27952.389    
    225000   225000         0.17571286     0.21122678     330.61118      282.24902      48.36216       58.1368        301.21753     -425.73932      54437.669      56542.875      28748.971      27793.904    
    226000   226000         0.17561853     0.13440157     343.23997      267.23354      76.006427      58.168026      298.23202     -345.23138      54847.091      56554.199      28464.027      28090.172    
    227000   227000         0.17554654     0.2151287      326.62889      279.1439       47.484985      58.19188       300.30533      13.658901      56610.951      56543.41       28661.909      27881.501    
    228000   228000         0.17553258     0.18580759     328.48359      273.5053       54.978289      58.196509      300.2129      -155.52048      55775.013      56544.034      28653.087      27890.947    
    229000   229000         0.17543966     0.14438031     336.3045       265.5512       70.753297      58.22733       298.82522     -101.92972      56045.764      56549.788      28520.643      28029.145    
    230000   230000         0.17541059     0.16758119     334.7859       273.82808      60.957816      58.236981      300.39502      418.83323      58619.265      56548.208      28670.469      27877.739    
    231000   231000         0.17535135     0.14902517     333.31681      264.76877      68.54804       58.256655      299.76994      172.06139      57399.239      56548.426      28610.81       27937.616    
    232000   232000         0.17529381     0.1609251      336.22158      272.74247      63.479115      58.275779      299.02123      844.00037      60724.612      56551.179      28539.351      28011.828    
    233000   233000         0.17518415     0.16490878     331.83583      269.89016      61.945661      58.312257      298.56251     -289.18087      55117.918      56547.867      28495.57       28052.297    
    234000   234000         0.17506919     0.17879542     325.51684      268.38236      57.134478      58.350549      299.40087      306.89815      58063.605      56546.047      28575.585      27970.463    
    235000   235000         0.1750231      0.17490118     331.03632      272.62973      58.406598      58.365912      298.40317     -275.90421      55191.139      56555.436      28480.362      28075.075    
    236000   236000         0.17494316     0.17431398     327.16146      268.5581       58.603351      58.392584      298.13795     -115.82313      55978.22       56550.945      28455.049      28095.896    
    237000   237000         0.174869       0.17753667     328.53566      270.99609      57.539567      58.417349      299.98235     -347.29142      54826.387      56543.682      28631.083      27912.599    
    238000   238000         0.17478759     0.18365652     332.79696      277.17474      55.622219      58.444557      301.57798      84.874319      56963.996      56544.307      28783.373      27760.934    
    239000   239000         0.17471872     0.20644883     323.85373      274.37231      49.481429      58.467595      300.51367     -501.77001      54066.07       56547.235      28681.793      27865.441    
    240000   240000         0.17466904     0.17737474     332.99967      275.40757      57.592098      58.484225      301.87445     -173.10166      55683.79       56539.747      28811.669      27728.078    
    241000   241000         0.17464311     0.15281725     337.06867      270.22161      66.847057      58.492907      298.93195      781.04905      60411.695      56549.545      28530.829      28018.716    
    242000   242000         0.17460532     0.14026211     331.46008      258.62941      72.830666      58.505568      299.81123      715.56468      60080.814      56542.473      28614.75       27927.723    
    243000   243000         0.17460277     0.17468032     332.31348      273.83304      58.480447      58.50642       299.01061      384.2892       58451.616      56551.374      28538.337      28013.036    
    244000   244000         0.17461421     0.14487415     333.39831      262.88619      70.512117      58.502588      301.23667      333.93927      58199.278      56548.007      28750.798      27797.209    
    245000   245000         0.17456174     0.14936598     329.13828      260.74665      68.391631      58.520172      298.32182      57.123549      56833.174      56550.708      28472.597      28078.112    
    246000   246000         0.17443354     0.14316401     333.70747      262.35306      71.354409      58.563183      299.08617      431.29598      58677.743      56545.06       28545.549      27999.511    
    247000   247000         0.17424078     0.14815123     336.38456      267.43215      68.952401      58.627969      300.19374      137.97249      57229.338      56547.089      28651.258      27895.831    
    248000   248000         0.17410503     0.15549294     325.54544      259.84867      65.696767      58.673681      298.75588     -1.3923543      56540.182      56547.067      28514.025      28033.043    
    249000   249000         0.17397498     0.15837627     328.95674      264.45603      64.500717      58.717543      300.42655     -353.84224      54787.607      56537.294      28673.478      27863.816    
    250000   250000         0.17383138     0.12674181     346.35132      265.75137      80.599946      58.766047      300.3457       309.32298      58075.525      56545.977      28665.762      27880.216    
    251000   251000         0.1737203      0.16218453     333.58753      270.60135      62.986175      58.803623      299.39807      541.75847      59227.416      56548.516      28575.317      27973.199    
    252000   252000         0.17364319     0.12699477     339.3532       258.9138       80.439402      58.829736      298.78202      268.28016      57876.003      56549.405      28516.52       28032.885    
    253000   253000         0.17350909     0.13675723     334.59595      259.89874      74.697209      58.875205      300.57266      424.91527      58643.282      56542.15       28687.424      27854.727    
    254000   254000         0.17341763     0.12269121     344.48814      261.22722      83.260921      58.906254      298.70698      596.82102      59498.387      56547.212      28509.358      28037.854    
    255000   255000         0.1733074      0.12102165     339.21342      254.80387      84.409552      58.943722      300.8731      -377.63502      54675.601      56542.94       28716.098      27826.842    
    256000   256000         0.17317366     0.12553069     335.75405      254.37648      81.377575      58.989242      298.25995     -21.89241       56440.702      56548.956      28466.693      28082.264    
    257000   257000         0.17307554     0.17783993     331.52287      274.08142      57.441447      59.022686      298.90116     -281.73566      55154.784      56547.917      28527.891      28020.025    
    258000   258000         0.17295487     0.14789268     328.5252       259.45225      69.072948      59.063866      300.27889     -24.263517      56422.691      56542.669      28659.385      27883.285    
    259000   259000         0.17285313     0.13026668     338.66511      260.2461       78.419002      59.098631      299.04324     -318.66353      54963.92       56539.655      28541.452      27998.204    
    260000   260000         0.17275092     0.16819705     328.5088       267.77418      60.734614      59.133596      300.24537      158.88232      57333.759      56548.114      28656.186      27891.928    
    261000   261000         0.17262879     0.14536143     335.38838      265.11263      70.275748      59.175433      300.51251      427.47767      58659.875      56546.073      28681.682      27864.391    
    262000   262000         0.17254326     0.17691225     324.22502      266.48236      57.742657      59.204765      299.9359       318.37427      58124.355      56550.05       28626.649      27923.401    
    263000   263000         0.17242197     0.13407784     338.17141      261.98147      76.189942      59.246413      299.46499     -367.5105       54729.825      56547.1        28581.704      27965.395    
    264000   264000         0.17229074     0.18731491     323.80102      269.26514      54.535879      59.29154       299.2563      -514.38329      54003.557      56547.091      28561.787      27985.305    
    265000   265000         0.17221824     0.17724547     328.89062      271.25652      57.6341        59.316498      298.79755     -681.12464      53173.792      56541.834      28518.002      28023.832    
    266000   266000         0.17213318     0.13717735     335.78096      261.31253      74.468437      59.345812      298.95192     -546.65113      53844.758      56547.852      28532.736      28015.116    
    267000   267000         0.17206022     0.11980532     341.29568      256.02915      85.266523      59.370976      300.37008     -242.33998      55342.148      56540.476      28668.088      27872.388    
    268000   268000         0.17192444     0.14781136     333.35398      264.24303      69.110948      59.417865      299.00968     -32.933733      56381.66       56544.511      28538.249      28006.262    
    269000   269000         0.17183238     0.13564653     336.65089      261.34205      75.30884       59.449699      299.23462      599.97588      59514.402      56547.626      28559.717      27987.909    
    270000   270000         0.17170439     0.13535031     337.77271      262.29905      75.473659      59.494014      297.88421     -180.64062      55655.406      56548.642      28430.831      28117.81     
    271000   271000         0.17162223     0.14647368     334.55843      264.81632      69.742107      59.522494      299.02213     -202.87499      55541.006      56544.188      28539.437      28004.751    
    272000   272000         0.17151397     0.14296274     336.47941      265.02455      71.454864      59.560066      300.13367     -320.51917      54963.617      56548.528      28645.525      27903.003    
    273000   273000         0.17145438     0.21453317     316.3535       268.73669      47.616801      59.580765      298.37575      141.56559      57252.931      56552.914      28477.744      28075.17     
    274000   274000         0.17144829     0.15147025     323.19129      255.74977      67.441513      59.582881      299.35721     -262.8796       55248.472      56548.366      28571.418      27976.948    
    275000   275000         0.17136638     0.14790309     335.80151      266.73343      69.068086      59.61136       300.41688      422.2754       58636.255      56548.177      28672.555      27875.622    
    276000   276000         0.17129348     0.19190579     325.81406      272.58282      53.231241      59.63673       300.03959     -119.63553      55950.766      56542.343      28636.546      27905.797    
    277000   277000         0.17120762     0.18521247     325.21041      270.05547      55.154942      59.666638      298.26389     -711.03436      53030.873      56546.813      28467.068      28079.744    
    278000   278000         0.17113589     0.14505193     335.30854      264.88284      70.425699      59.691648      300.25946     -80.882641      56147.885      56547.836      28657.53       27890.305    
    279000   279000         0.17107835     0.152907       325.56428      258.75647      66.807818      59.711724      300.01354      76.563         56926.34       56547.749      28634.059      27913.69     
    280000   280000         0.17095792     0.13762183     343.66768      269.43975      74.227925      59.753786      300.00637      75.546865      56913.922      56540.356      28633.375      27906.981    
    281000   281000         0.17081586     0.17767281     326.65698      269.1615       57.495479      59.803481      300.28817      438.76103      58711.272      56541.676      28660.271      27881.405    
    282000   282000         0.17071026     0.14410319     336.51261      265.62324      70.889364      59.840477      299.08775     -1058.1214      51318.755      56550.98       28545.7        28005.28     
    283000   283000         0.17061028     0.16930498     324.50689      264.16972      60.337168      59.875543      297.59033      99.008676      57042.227      56552.646      28402.782      28149.864    
    284000   284000         0.17048933     0.14145337     342.47167      270.25435      72.217322      59.918019      299.4346       35.115548      56720.975      56547.335      28578.804      27968.53     
    285000   285000         0.17043397     0.15853221     330.90713      266.46986      64.437272      59.937481      299.31858     -449.9945       54322.368      56547.512      28567.731      27979.781    
    286000   286000         0.17032187     0.11910656     345.89758      260.13083      85.766753      59.97693       299.91565     -214.09646      55484.61       56543.279      28624.716      27918.563    
    287000   287000         0.17023388     0.17540674     324.30074      266.06249      58.238258      60.007931      301.28364     -575.61177      53699.291      56545.59       28755.281      27790.31     
    288000   288000         0.17019307     0.16464859     323.30675      261.2632       62.043552      60.02232       299.2753       88.391615      56988.093      56551.012      28563.6        27987.411    
    289000   289000         0.17009071     0.13572257     334.34445      259.07779      75.266652      60.058442      299.88245     -445.15333      54346.334      56547.539      28621.548      27925.991    
    290000   290000         0.17003763     0.16996131     323.5619       263.45773      60.104167      60.07719       299.72023     -111.89172      55991.056      56544.341      28606.065      27938.275    
    291000   291000         0.17003118     0.14577333     345.77574      275.69856      70.077176      60.079472      300.93562      208.74855      57575.665      56543.44       28722.065      27821.375    
    292000   292000         0.17004894     0.18737625     326.74777      272.22974      54.518026      60.073197      300.01102     -217.08283      55470.829      56544.265      28633.819      27910.446    
    293000   293000         0.17008156     0.16783044     331.49993      270.63264      60.867285      60.061674      299.67482      279.9061       57927.856      56543.77       28601.731      27942.039    
    294000   294000         0.17011141     0.18171521     334.52761      278.31116      56.216445      60.051134      298.99928      556.02444      59297.445      56548.002      28537.256      28010.745    
    295000   295000         0.17009851     0.13360397     340.64942      264.18925      76.460175      60.055688      299.87039     -312.11688      55006.638      56550.001      28620.397      27929.604    
    296000   296000         0.17003246     0.16898747     337.26999      276.81946      60.450534      60.079016      299.84616      220.29184      57638.459      56549.154      28618.084      27931.07     
    297000   297000         0.16999634     0.12947936     343.63591      264.74007      78.895844      60.091784      298.65508      275.12819      57908.238      56547.778      28504.404      28043.373    
    298000   298000         0.16996387     0.1815918      324.1691       267.91445      56.254651      60.103264      300.13116     -31.012873      56392.162      56545.515      28645.286      27900.229    
    299000   299000         0.16993701     0.16325999     332.17337      269.60211      62.571261      60.112764      300.07875     -30.284474      56398.885      56548.636      28640.283      27908.353    
    300000   300000         0.16990573     0.19063921     328.70511      275.12021      53.5849        60.123831      300.57252     -342.69701      54858.485      56553.062      28687.41       27865.652    
    301000   301000         0.16984342     0.15432945     329.80316      263.61111      66.192053      60.145886      300.96014     -67.12362       56207.819      56539.734      28724.405      27815.329    
    302000   302000         0.16977766     0.13989147     338.17211      265.14848      73.023631      60.169182      299.40834      2.4375125      56557.597      56545.544      28576.297      27969.247    
    303000   303000         0.16973279     0.17389501     332.19392      273.44937      58.744546      60.185091      299.27828      52.477373      56802.52       56543.029      28563.884      27979.145    
    304000   304000         0.16969278     0.14252444     336.18353      264.50893      71.674605      60.199278      299.84503      242.79369      57752.242      56551.67       28617.976      27933.694    
    305000   305000         0.16970377     0.13437705     336.33467      260.31438      76.020294      60.195381      299.454        322.10877      58138.324      56545.552      28580.655      27964.897    
    306000   306000         0.16965193     0.15953804     325.94316      261.91214      64.031019      60.213774      299.10277     -69.922924      56206.419      56552.175      28547.134      28005.042    
    307000   307000         0.16963403     0.16629926     329.30832      267.88061      61.427711      60.220129      298.06764     -55.808819      56278.704      56554.669      28448.337      28106.331    
    308000   308000         0.16960588     0.15661882     333.14596      267.92146      65.224495      60.230123      299.97484      7.5827673      56589.197      56551.701      28630.365      27921.336    
    309000   309000         0.16952633     0.15196385     338.6237       271.40125      67.222454      60.258388      301.38054     -208.02302      55515.261      56543.898      28764.529      27779.369    
    310000   310000         0.1694878      0.19158207     327.92172      274.60054      53.321185      60.272086      299.81153     -518.51127      53982.644      56546.591      28614.779      27931.812    
    311000   311000         0.16941296     0.13757023     349.34577      275.09001      74.255769      60.29871       301.32967      382.03161      58431.738      56542.659      28759.675      27782.984    
    312000   312000         0.16939288     0.16797095     325.78414      264.96777      60.816368      60.30586       298.74382     -899.96558      52102.067      56552.238      28512.874      28039.364    
    313000   313000         0.16942014     0.14893957     335.82544      267.238        68.587436      60.296154      299.74114     -123.78522      55938.974      56551.07       28608.061      27943.009    
    314000   314000         0.16943047     0.16466196     329.63096      267.59245      62.038511      60.292479      299.35523     -40.48799       56348.623      56548.829      28571.228      27977.6      
    315000   315000         0.16942767     0.1322365      349.67648      272.42562      77.250861      60.293475      301.31374      872.80398      60860.805      56544.943      28758.153      27786.79     
    316000   316000         0.16937884     0.16003938     332.55395      268.72352      63.830436      60.310859      300.7646       34.406592      56715.786      56545.651      28705.742      27839.909    
    317000   317000         0.16932375     0.16144277     329.87477      266.5992       63.275568      60.330479      298.50207      200.77093      57543.404      56550.627      28489.801      28060.826    
    318000   318000         0.16933575     0.18878799     325.97074      271.8604       54.110344      60.326205      300.33879      277.54208      57915.637      56543.24       28665.102      27878.139    
    319000   319000         0.1692562      0.16293769     333.35911      270.66408      62.69503       60.354558      298.70823      246.38233      57766.285      56547.968      28509.477      28038.491    
    320000   320000         0.16919954     0.16289949     331.11166      268.40193      62.709732      60.374768      300.57541      75.967908      56916.982      56541.334      28687.686      27853.648    
    321000   321000         0.16911412     0.16626219     337.06173      275.62033      61.44141       60.405266      301.67192      514.30547      59090.272      56547.122      28792.339      27754.783    
    322000   322000         0.16901564     0.14918988     336.31898      267.84662      68.47236       60.440462      299.87653      3.2705731      56563.345      56547.172      28620.983      27926.19     
    323000   323000         0.16893586     0.17673999     329.62676      271.82782      57.798934      60.469003      299.50471     -340.01607      54866.63       56547.95       28585.495      27962.455    
    324000   324000         0.16890163     0.15246238     333.43447      266.43182      67.002649      60.481258      299.02518     -665.18316      53258.976      56548.19       28539.728      28008.462    
    325000   325000         0.16883159     0.14018332     334.05672      261.18512      72.871601      60.506348      299.37528     -258.73607      55264.158      56543.562      28573.142      27970.42     
    326000   326000         0.16877136     0.14733679     334.43756      265.104        69.333555      60.527942      299.95595      326.69504      58164.199      56548.749      28628.563      27920.187    
    327000   327000         0.16875333     0.14943328     328.22134      259.86051      68.360831      60.534408      300.90411      430.69679      58672.389      56542.669      28719.058      27823.611    
    328000   328000         0.16873211     0.1970145      326.16363      274.31271      51.85092       60.542021      300.27395      190.70733      57489.266      56546.251      28658.913      27887.338    
    329000   329000         0.16867282     0.18421344     323.29035      267.83629      55.45406       60.563303      299.24698      204.66076      57555.535      56543.524      28560.897      27982.627    
    330000   330000         0.16863839     0.16417482     322.87         260.6474       62.222595      60.57567       298.77763     -266.89355      55232.309      56552.051      28516.101      28035.95     
    331000   331000         0.16860671     0.16047855     330.04018      266.38443      63.655753      60.587052      300.55795      24.464599      56669.911      56548.938      28686.019      27862.919    
    332000   332000         0.16862198     0.16766058     323.3457       262.41675      60.92895       60.581564      298.36624      251.42051      57790.208      56546.978      28476.837      28070.141    
    333000   333000         0.16863653     0.15991279     339.39528      275.51432      63.880965      60.576338      299.26953      293.72593      58003.686      56551.263      28563.049      27988.213    
    334000   334000         0.1686119      0.17792375     325.30429      267.88991      57.414388      60.585184      299.65244      187.62354      57470.04       56542.274      28599.595      27942.68     
    335000   335000         0.16857449     0.16703258     322.76872      261.61069      61.158028      60.598632      300.74445      474.11683      58883.207      56538.782      28703.819      27834.963    
    336000   336000         0.16852203     0.15610042     328.55003      263.10893      65.441098      60.617495      298.69734      245.92574      57763.366      56547.307      28508.437      28038.869    
    337000   337000         0.16845406     0.16172257     330.00766      266.84156      63.166095      60.641952      299.1944       273.03811      57902.307      56552.182      28555.879      27996.303    
    338000   338000         0.16839937     0.17290513     324.32036      265.2395       59.080856      60.661647      298.22901      481.11601      58928.869      56549.834      28463.739      28086.095    
    339000   339000         0.16837399     0.19177289     318.85622      265.58809      53.26813       60.670792      298.59007      497.80778      59005.955      56544.383      28498.2        28046.183    
    340000   340000         0.16834067     0.14050212     335.22171      262.51545      72.706254      60.682799      300.68423     -35.892547      56369.383      56546.866      28698.072      27848.794    
    341000   341000         0.1683104      0.15229816     334.03046      266.95556      67.074894      60.693715      300.49494      94.841972      57015.739      56546.762      28680.005      27866.757    
    342000   342000         0.16825665     0.12657747     345.05177      264.34718      80.704593      60.713102      300.01613     -46.181977      56314.468      56542.829      28634.307      27908.523    
    343000   343000         0.16816018     0.13666657     343.84482      269.09806      74.746757      60.747933      300.91458     -493.42003      54106.069      56545.944      28720.057      27825.887    
    344000   344000         0.16807839     0.13458566     333.48774      257.58528      75.902462      60.777494      299.92503     -98.343428      56064.42       56550.711      28625.612      27925.099    
    345000   345000         0.16796361     0.13641804     331.6285       256.74556      74.882933      60.819026      299.01133     -361.11705      54766.026      56551.687      28538.406      28013.281    
    346000   346000         0.16790007     0.13228138     335.88739      258.66274      77.224647      60.842043      299.62751     -774.53094      52718.095      56548.014      28597.215      27950.799    
    347000   347000         0.16785939     0.13447036     339.68571      263.71816      75.967543      60.856789      298.82302     -15.844823      56470.699      56549.048      28520.433      28028.615    
    348000   348000         0.16782076     0.14704439     331.8378       262.36637      69.471425      60.870794      298.70346      629.87163      59664.927      56550.323      28509.022      28041.301    
    349000   349000         0.16777884     0.17038504     326.53002      266.57533      59.954696      60.886003      299.36014     -125.09674      55932.553      56551.134      28571.697      27979.437    
    350000   350000         0.16776451     0.15638435     330.70521      265.38293      65.322288      60.891205      300.345        551.0935       59270.513      56545.452      28665.694      27879.758    
    351000   351000         0.16774821     0.163316       334.19765      271.64785      62.549799      60.897123      298.8548       222.14861      57648.241      56549.755      28523.467      28026.289    
    352000   352000         0.16777187     0.19850181     327.99089      276.52847      51.462417      60.888534      299.06248      196.48241      57519.864      56548.293      28543.288      28005.005    
    353000   353000         0.16780933     0.15299884     336.63695      269.86923      66.767718      60.874943      300.07023      589.1342       59459.839      56546.674      28639.47       27907.203    
    354000   354000         0.16785168     0.40239849     318.0559       292.66967      25.386236      60.859581      298.68967     -401.86901      54562.136      56549.308      28507.706      28041.602    
[...]
    931000   931000         0.16581393     0.15373496     335.43425      268.98623      66.448017      61.607508      298.60441      120.36777      57149.268      56554.07       28499.569      28054.502    
    932000   932000         0.16580958     0.17363121     327.92646      269.09266      58.833797      61.609127      299.63098      377.66502      58411.918      56544.431      28597.547      27946.884    
    933000   933000         0.16581764     0.19459798     319.34098      266.84617      52.494806      61.60613       299.31565     -306.85299      55031.468      56548.802      28567.451      27981.351    
    934000   934000         0.16582007     0.14870437     332.15281      263.4569       68.695916      61.605228      298.2056       84.04905       56963.906      56548.298      28461.505      28086.793    
    935000   935000         0.16581724     0.15291279     334.75387      267.94857      66.805291      61.60628       299.69827      132.51225      57204.819      56549.57       28603.969      27945.601    
    936000   936000         0.16580577     0.16160759     331.92922      268.71819      63.211036      61.610542      299.5231       273.93653      57901.83       56547.262      28587.251      27960.012    
    937000   937000         0.1657997      0.15496691     333.78231      267.86254      65.91977       61.612797      300.19057      624.50863      59630.508      56542.423      28650.955      27891.468    
    938000   938000         0.16578901     0.17644598     325.95164      268.0564       57.895244      61.61677       299.77324      215.42111      57612.648      56547.428      28611.124      27936.304    
    939000   939000         0.16579231     0.1518143      331.79971      264.51103      67.288676      61.615542      300.19428      342.79857      58244.149      56549.071      28651.31       27897.761    
    940000   940000         0.16577994     0.1494529      337.64748      269.29563      68.351855      61.62014       300.46221     -50.213531      56298.594      56546.891      28676.882      27870.01     
    941000   941000         0.16577955     0.15886743     333.4818       269.18049      64.301307      61.620287      301.15138      300.41503      58027.636      56542.137      28742.658      27799.479    
    942000   942000         0.16578786     0.15533653     334.66496      268.90204      65.762916      61.617198      300.42692     -366.17602      54738.933      56549.609      28673.513      27876.096    
    943000   943000         0.16579345     0.17070557     326.19886      266.35674      59.842119      61.615118      300.74802     -59.702829      56252.048      56547.268      28704.16       27843.108    
    944000   944000         0.1658036      0.17024846     324.22522      264.22243      60.002792      61.611347      299.43813      103.69735      57060.488      56547.723      28579.14       27968.582    
    945000   945000         0.16579937     0.16308565     335.17749      272.53934      62.63815       61.61292       300.13516     -395.1662       54592.068      56546.096      28645.668      27900.428    
    946000   946000         0.16581109     0.17056382     326.8307       266.93885      59.891852      61.608565      302.21665     -79.47595       56147.389      56540.384      28844.33       27696.054    
    947000   947000         0.16581605     0.16163243     323.07091      259.86959      63.20132       61.606721      300.21659      99.005992      57040.168      56550.601      28653.439      27897.162    
    948000   948000         0.16580838     0.17565565     325.74533      267.5896       58.155734      61.609571      300.69365      258.7917       57824.938      56545.258      28698.97       27846.288    
    949000   949000         0.16580485     0.15485337     339.12665      273.15855      65.968106      61.610881      300.5346       44.784298      56763.492      56542.042      28683.79       27858.251    
    950000   950000         0.16580552     0.17175544     329.49738      270.02105      59.476328      61.610634      300.72397      11.39417       56599.089      56542.747      28701.865      27840.882    
    951000   951000         0.16580366     0.18671353     325.35079      270.63926      54.71153       61.611324      299.30198     -225.14909      55434.646      56547.969      28566.146      27981.823    
    952000   952000         0.16580488     0.18375116     329.9546       274.36103      55.593571      61.61087       300.84981     -692.86568      53125.712      56551.811      28713.875      27837.936    
    953000   953000         0.16581035     0.16576256     328.31821      266.69161      61.6266        61.608837      298.97774     -480.53433      54174.634      56550.792      28535.2        28015.592    
    954000   954000         0.16580864     0.14323437     337.01445      265.69509      71.319357      61.609473      300.69958     -11.5476        56490.931      56548.032      28699.537      27848.495    
    955000   955000         0.16580686     0.20925497     327.65375      278.83588      48.817877      61.610137      298.35532     -4.6982839      56525.429      56548.661      28475.794      28072.866    
    956000   956000         0.16580091     0.13622844     339.26391      264.27676      74.987153      61.612349      300.03427      43.159748      56766.322      56552.904      28636.038      27916.867    
    957000   957000         0.16578737     0.14710893     331.4785       262.03755      69.440946      61.617378      297.70323     -228.22923      55420.495      56549.048      28413.558      28135.491    
    958000   958000         0.16578387     0.13876712     339.10874      265.49344      73.6153        61.61868       299.02964      90.510171      56995.871      56548.314      28540.153      28008.161    
    959000   959000         0.16577043     0.14218148     347.30735      275.45986      71.847495      61.623676      301.23166      381.09164      58428.461      56544.03       28750.32       27793.71     
    960000   960000         0.16577119     0.14618257     328.48402      258.60303      69.880991      61.623395      300.55596      51.364994      56801.892      56547.901      28685.829      27862.072    
    961000   961000         0.16576775     0.15294291     336.83131      270.03918      66.792132      61.624673      298.61324     -49.91542       56309.324      56556.147      28500.411      28055.736    
    962000   962000         0.16575794     0.16621929     327.07273      265.61546      61.457266      61.628319      300.20637      383.33538      58445.92       56550.394      28652.464      27897.93     
    963000   963000         0.16575648     0.15233423     331.35177      264.29276      67.059015      61.628861      301.28148      109.61678      57086.357      56544.321      28755.075      27789.246    
    964000   964000         0.16574696     0.14330785     330.64967      259.36688      71.282791      61.6324        298.12883     -76.41245       56173.343      56551.189      28454.178      28097.012    
    965000   965000         0.16573578     0.18104338     325.15985      268.73479      56.425058      61.63656       300.89512      123.69767      57152.776      56541.113      28718.2        27822.913    
    966000   966000         0.16573539     0.19873799     325.51044      274.10918      51.40126       61.636703      299.64692      875.86585      60879.574      56548.571      28599.068      27949.503    
    967000   967000         0.16574417     0.13818049     337.7573       263.82948      73.927824      61.633438      302.33934     -297.09384      55070.67       56539.747      28856.04       27683.707    
    968000   968000         0.1657382      0.17342992     324.70566      265.80358      58.90208       61.63566       299.22555      332.11278      58184.34       56542.101      28558.851      27983.249    
    969000   969000         0.16574037     0.18133069     324.5594       268.22375      56.335655      61.634853      300.6457      -470.64624      54219.656      56546.919      28694.394      27852.525    
    970000   970000         0.16573521     0.17046194     333.43239      273.50475      59.927648      61.63677       300.0121      -152.37928      55792.23       56545.718      28633.922      27911.796    
    971000   971000         0.16573145     0.16559178     332.79468      271.10453      61.690157      61.63817       298.9831       299.82164      58029.244      56546.679      28535.712      28010.967    
    972000   972000         0.16573682     0.14619764     342.2611       272.38731      69.873791      61.636172      301.96054     -144.86681      55826.154      56542.495      28819.886      27722.609    
    973000   973000         0.16573302     0.16334552     338.50112      275.96262      62.538496      61.637586      299.38729     -210.55439      55503.974      56545.128      28574.288      27970.84     
    974000   974000         0.16573396     0.1744722      328.49943      269.94922      58.550207      61.637235      299.87627     -71.496863      56193.169      56546.708      28620.958      27925.75     
    975000   975000         0.16574097     0.16156302     332.20488      268.97641      63.228475      61.63463       301.23429     -487.86957      54128.498      56540.927      28750.571      27790.356    
    976000   976000         0.16574583     0.16643389     332.45737      271.07934      61.378025      61.63282       299.67486     -242.79237      55349.169      56549.735      28601.735      27948        
    977000   977000         0.16575615     0.16962809     329.8491       269.62686      60.222239      61.628985      298.56608     -684.83809      53162.879      56549.283      28495.91       28053.374    
    978000   978000         0.1657568      0.17653098     324.02304      266.15567      57.867368      61.628744      299.03349      7.5984629      56590.08       56552.507      28540.521      28011.986    
    979000   979000         0.16574398     0.15745381     327.96044      263.08184      64.878603      61.63351       299.2337       300.07726      58030.405      56546.576      28559.629      27986.946    
    980000   980000         0.16573501     0.13064738     334.87914      256.68864      78.190495      61.636844      298.19771     -453.06492      54310.117      56550.443      28460.752      28089.691    
    981000   981000         0.16572764     0.17484523     329.31882      270.89353      58.425289      61.639586      300.61907      120.04014      57138.276      56544.699      28691.852      27852.846    
    982000   982000         0.16571337     0.1495585      326.74394      258.44035      68.303592      61.644894      298.83267     -268.01845      55221.547      56546.851      28521.354      28025.497    
    983000   983000         0.16572367     0.16792106     328.38421      267.54977      60.834438      61.641061      299.72695      47.368805      56782.528      56548.298      28606.706      27941.592    
    984000   984000         0.16572734     0.16665908     329.24346      267.94837      61.295089      61.639699      299.51497     -132.89016      55888.675      56545.793      28586.475      27959.318    
    985000   985000         0.16574024     0.1701817      327.92778      267.90145      60.026332      61.6349        298.24644     -579.84989      53683.695      56550.951      28465.402      28085.548    
    986000   986000         0.16574292     0.1743514      340.00191      281.41114      58.590771      61.633904      298.94706     -204.33669      55541.855      56552.264      28532.272      28019.992    
    987000   987000         0.16573374     0.13460716     341.51722      265.62688      75.89034       61.637316      301.02598      97.07243       57021.852      56541.846      28730.689      27811.157    
    988000   988000         0.16572755     0.15670836     342.74249      277.55527      65.187224      61.639618      299.90805     -87.249078      56117.863      56549.294      28623.991      27925.303    
    989000   989000         0.16571473     0.14063395     351.30464      278.66654      72.638102      61.644387      300.38187     -439.45915      54377.33       56550.378      28669.214      27881.164    
    990000   990000         0.165698       0.17866656     329.86289      272.68721      57.175685      61.650613      297.9641       203.08213      57557.007      56552.801      28438.456      28114.346    
    991000   991000         0.16567014     0.14510731     334.96334      264.56452      70.398819      61.660981      300.08787      212.69869      57599.976      56548.219      28641.153      27907.066    
    992000   992000         0.16565997     0.16633075     337.56025      276.14417      61.416084      61.664765      300.4322       305.43701      58054.14       56543.808      28674.018      27869.79     
    993000   993000         0.16565049     0.15237065     330.7478       263.70482      67.042983      61.668294      300.26825     -222.17569      55446.8        56545.42       28658.37       27887.05     
    994000   994000         0.1656413      0.17079393     332.17996      272.3688       59.811162      61.671717      299.50475     -41.480277      56344.404      56549.517      28585.5        27964.017    
    995000   995000         0.16563262     0.14719695     331.76114      262.36172      69.399423      61.674948      300.15482      531.49047      59178.453      56550.326      28647.543      27902.783    
    996000   996000         0.16562851     0.12353138     345.61857      262.92393      82.69464       61.676478      298.2667       152.49149      57304.021      56549.977      28467.336      28082.641    
    997000   997000         0.16561997     0.1977968      334.14427      282.49842      51.645847      61.679658      301.96254      384.74933      58448.39       56545.872      28820.077      27725.795    
    998000   998000         0.16562405     0.17520799     328.06154      269.75722      58.304323      61.678139      300.4883      -51.982162      56290.609      56547.652      28679.372      27868.28     
    999000   999000         0.16562968     0.19007861     330.45444      276.7115       53.74294       61.676042      300.42107      224.29792      57649.718      56540.604      28672.955      27867.649    
   1000000   1000000        0.16563451     0.16382913     332.68835      270.33447      62.353887      61.674244      299.91197      828.98802      60641.407      56542.207      28624.365      27917.842    
   1001000   1001000        0.16563932     0.2120763      326.46725      278.29881      48.168434      61.672453      298.32348     -512.4578       54023.096      56557.11       28472.756      28084.354    
   1002000   1002000        0.1656397      0.17262603     328.2779       269.10152      59.176378      61.672311      300.48591     -360.31252      54762.698      56544.38       28679.143      27865.237    
   1003000   1003000        0.16563043     0.16127281     330.39301      267.05076      63.342253      61.675764      299.04516      568.89393      59356.227      56543.147      28541.635      28001.512    
   1004000   1004000        0.16562645     0.15806641     332.74186      268.1147       64.62716       61.677245      300.72356     -217.81239      55464.274      56541.318      28701.825      27839.492    
   1005000   1005000        0.16563743     0.19908191     324.16634      272.85388      51.312463      61.673157      299.40386     -240.35822      55358.789      56547.318      28575.87       27971.449    
   1006000   1006000        0.1656513      0.14801777     334.68275      265.66818      69.014573      61.667991      299.29723      494.02152      58987.978      56545.129      28565.693      27979.435    
   1007000   1007000        0.16565876     0.17618684     328.31047      270.33008      57.980397      61.665217      298.46143     -281.40085      55156.458      56547.935      28485.922      28062.013    
   1008000   1008000        0.16566972     0.17493409     332.49587      274.10026      58.39561       61.661134      299.28575      159.755        57338.407      56548.447      28564.597      27983.85     
   1009000   1009000        0.16566095     0.15657487     338.35152      273.10872      65.242803      61.664401      300.02108     -229.57589      55413.772      56548.984      28634.779      27914.205    
   1010000   1010000        0.16566088     0.15248168     337.71974      270.72557      66.994167      61.664426      299.05257     -265.88638      55233.065      56547.826      28542.342      28005.485    
   1011000   1011000        0.16565038     0.16184664     342.63078      279.51311      63.117671      61.668336      300.32692     -466.78409      54241.542      56549.707      28663.969      27885.738    
   1012000   1012000        0.16564549     0.17816495     326.85252      269.51586      57.336662      61.670157      300.60429     -45.123996      56325.735      56548.866      28690.442      27858.424    
   1013000   1013000        0.16563088     0.15932905     341.27956      277.16455      64.115007      61.675595      299.42807     -550.56175      53825.895      56548.326      28578.181      27970.146    
   1014000   1014000        0.16561973     0.19728168     332.75618      280.97548      51.780699      61.67975       300.94904     -600.22689      53579.603      56547.62       28723.346      27824.274    
   1015000   1015000        0.16561025     0.16135829     327.80876      264.50006      63.308696      61.683278      300.27554     -219.1771       55463.415      56547.207      28659.065      27888.142    
   1016000   1016000        0.16560037     0.15701957     329.24941      264.19138      65.058025      61.686959      299.0892       436.10786      58702.221      56545.744      28545.838      27999.907    
   1017000   1017000        0.16558566     0.14109076     336.50721      264.10429      72.40292       61.692439      299.33328      5.2946189      56577.493      56551.312      28569.133      27982.179    
   1018000   1018000        0.16558216     0.14031034     345.86618      273.06055      72.805632      61.693743      300.97955      116.73591      57125.524      56548.285      28726.257      27822.028    
   1019000   1019000        0.16555997     0.1845294      325.5522       270.19309      55.359108      61.702013      299.05288     -618.65084      53493.601      56552.721      28542.372      28010.349    
   1020000   1020000        0.16554302     0.17083972     333.51288      273.71775      59.795131      61.708329      300.31749     -25.286         56427.644      56552.679      28663.069      27889.61     
Loop time of 10793.1 on 32 procs for 1000000 steps with 32020 atoms

Performance: 8.005 ns/day, 2.998 hours/ns, 92.652 timesteps/s, 2.967 Matom-step/s
99.4% CPU use with 32 MPI tasks x 1 OpenMP threads

MPI task timing breakdown:
Section |  min time  |  avg time  |  max time  |%varavg| %total
---------------------------------------------------------------
Pair    | 6848.8     | 7552.5     | 8396.7     | 414.1 | 69.98
Bond    | 186.65     | 205.7      | 217.33     |  57.3 |  1.91
Kspace  | 1107.3     | 1949.9     | 2591.2     | 807.0 | 18.07
Neigh   | 337.85     | 350.17     | 355.21     |  22.0 |  3.24
Comm    | 416.45     | 536.07     | 743.77     | 340.9 |  4.97
Output  | 0.096257   | 0.11009    | 0.28223    |   9.6 |  0.00
Modify  | 86.081     | 174.85     | 259.7      | 422.8 |  1.62
Other   |            | 23.8       |            |       |  0.22

Nlocal:        1000.62 ave        1060 max         954 min
Histogram: 3 3 1 9 1 6 4 4 0 1
Nghost:        11106.2 ave       11223 max       11006 min
Histogram: 2 4 2 7 4 5 2 3 1 2
Neighs:         542958 ave      601278 max      494096 min
Histogram: 2 4 3 2 6 7 4 2 1 1

Total # of neighbors = 17374641
Ave neighs/atom = 542.61839
Ave special neighs/atom = 11.48782
Neighbor list builds = 28182
Dangerous builds = 0
Total wall time: 3:03:29
