units real
atom_style full
boundary p p p

# styles
pair_style lj/charmm/coul/long 8.0 12.0
kspace_style pppm 1e-6
dielectric 1.000000
bond_style harmonic
angle_style harmonic
dihedral_style fourier
improper_style cvff
special_bonds amber
pair_modify mix arithmetic
neighbor 2.0 bin
neigh_modify delay 0 every 1 check yes

# system definition
read_data ../final.data
Reading data file ...
  orthogonal box = (-41.07686 -32.676339 -31.575799) to (41.07686 32.676339 31.575799)
  4 by 4 by 2 MPI processor grid
  reading atoms ...
  32020 atoms
  reading velocities ...
  32020 velocities
  scanning bonds ...
  3 = max bonds/atom
  scanning angles ...
  6 = max angles/atom
  scanning dihedrals ...
  15 = max dihedrals/atom
  scanning impropers ...
  1 = max impropers/atom
  reading bonds ...
  34010 bonds
  reading angles ...
  60000 angles
  reading dihedrals ...
  95910 dihedrals
  reading impropers ...
  10000 impropers
Finding 1-2 1-3 1-4 neighbors ...
  special bond factors lj:    0        0        0.5     
  special bond factors coul:  0        0        0.8333333333333334
     4 = max # of 1-2 neighbors
     8 = max # of 1-3 neighbors
    18 = max # of 1-4 neighbors
    22 = max # of special neighbors
  special bonds CPU = 0.077 seconds
  read_data CPU = 0.609 seconds
# do not reset velocities

# vars
variable tLog equal 1000
variable nEvery equal 10
variable nRepeat equal 100
variable boolDump equal 0
variable tDump equal 1000

variable tPreeq equal 10000
variable tPrerun equal 10000
variable tTCrun equal 1000000

variable diffT_delay equal ${tPreeq}+${tPreeq}
variable diffT_delay equal 10000+${tPreeq}
variable diffT_delay equal 10000+10000
# heatflux of 0.05 give good results over 1 ns
variable heat_flux equal 0.05
variable heat_flux_neg equal -1*v_heat_flux

# defining region
variable hot_lo equal (lx*0)+xlo
variable hot_hi equal (lx*0.05)+xlo
variable cold_lo equal (lx*0.50)+xlo
variable cold_hi equal (lx*0.55)+xlo

print "DEBUG: ${hot_lo} ${hot_hi} ${cold_lo} ${cold_hi}"
DEBUG: -41.07686043132 -36.969174388188 0 4.107686043132

# define heating and cooling block regions
region hot block ${hot_lo} ${hot_hi} INF INF INF INF units box
region hot block -41.07686043132 ${hot_hi} INF INF INF INF units box
region hot block -41.07686043132 -36.969174388188 INF INF INF INF units box
region cold block ${cold_lo} ${cold_hi} INF INF INF INF units box
region cold block 0 ${cold_hi} INF INF INF INF units box
region cold block 0 4.107686043132 INF INF INF INF units box
compute Thot all temp/region hot
compute Tcold all temp/region cold

# STEP 1 - 1st equilibration (nve)
# 1a - thermo output for md2
thermo_style custom step time temp c_Thot c_Tcold press enthalpy etotal ke pe
thermo_modify colname c_Thot Temp_hot colname c_Tcold Temp_cold
thermo_modify flush yes
thermo ${tLog}
thermo 1000

# 1b - nve equilibration
timestep 1.0
fix md2 all nve
run ${tPreeq}
run 10000
PPPM initialization ...
  using 12-bit tables for long-range coulomb (src/kspace.cpp:342)
  G vector (1/distance) = 0.23713698
  grid = 45 36 36
  stencil order = 5
  estimated absolute RMS force accuracy = 0.00028675184
  estimated relative force accuracy = 8.6354464e-07
  using double precision FFTW3
  3d grid and FFT values/proc = 7200 3240
Generated 10 of 10 mixed pair_coeff terms from arithmetic mixing rule
Neighbor list info ...
  update: every = 1 steps, delay = 0 steps, check = yes
  max neighbors/atom: 2000, page size: 100000
  master list distance cutoff = 14
  ghost atom cutoff = 14
  binsize = 7, bins = 12 10 10
  1 neighbor lists, perpetual/occasional/extra = 1 0 0
  (1) pair lj/charmm/coul/long, perpetual
      attributes: half, newton on
      pair build: half/bin/newton
      stencil: half/bin/3d
      bin: standard
Per MPI rank memory allocation (min/avg/max) = 17.69 | 17.74 | 18.22 Mbytes
   Step          Time           Temp         Temp_hot      Temp_cold        Press         Enthalpy        TotEng         KinEng         PotEng    
         0   0              299.02528      285.71405      299.54402     -153.33602      55796.692      56554.912      28539.738      28015.174    
      1000   1000           299.34921      284.02314      300.46315     -533.94942      53910.169      56550.455      28570.654      27979.802    
      2000   2000           300.69825      295.75469      303.29906      293.70498      57997.453      56545.133      28699.41       27845.723    
      3000   3000           300.66594      296.23304      311.89109      304.79857      58051.772      56544.597      28696.326      27848.271    
      4000   4000           302.24223      299.80575      307.5937       50.633677      56790.187      56539.813      28846.771      27693.042    
      5000   5000           298.64446      304.28299      309.23858     -593.91796      53609.237      56546.057      28503.391      28042.667    
      6000   6000           300.70099      304.20556      303.37311     -2.0153206      56533.387      56543.353      28699.671      27843.681    
      7000   7000           299.95165      304.61009      310.48425     -241.02072      55351.872      56543.678      28628.153      27915.525    
      8000   8000           299.2205       288.11207      306.30832     -29.12992       56404.068      56548.111      28558.369      27989.741    
      9000   9000           298.40771      297.99241      311.91447     -542.18678      53869.292      56550.31       28480.795      28069.516    
     10000   10000          298.80037      303.57979      299.59727      74.129188      56914.001      56547.445      28518.272      28029.174    
Loop time of 102.152 on 32 procs for 10000 steps with 32020 atoms

Performance: 8.458 ns/day, 2.838 hours/ns, 97.893 timesteps/s, 3.135 Matom-step/s
99.5% CPU use with 32 MPI tasks x 1 OpenMP threads

MPI task timing breakdown:
Section |  min time  |  avg time  |  max time  |%varavg| %total
---------------------------------------------------------------
Pair    | 68.959     | 75.451     | 83.224     |  41.0 | 73.86
Bond    | 1.8985     | 2.0608     | 2.3502     |   6.9 |  2.02
Kspace  | 8.5341     | 16.347     | 22.918     |  88.0 | 16.00
Neigh   | 3.3093     | 3.3964     | 3.419      |   1.5 |  3.32
Comm    | 2.7882     | 3.8414     | 5.1667     |  32.3 |  3.76
Output  | 0.00081659 | 0.0013794  | 0.0034859  |   1.5 |  0.00
Modify  | 0.052159   | 0.057648   | 0.065697   |   1.4 |  0.06
Other   |            | 0.9958     |            |       |  0.97

Nlocal:        1000.62 ave        1047 max         950 min
Histogram: 2 2 3 1 5 8 4 2 4 1
Nghost:        11111.1 ave       11244 max       10988 min
Histogram: 4 3 2 4 2 7 3 2 4 1
Neighs:         542914 ave      601481 max      494271 min
Histogram: 2 2 3 6 4 8 4 1 1 1

Total # of neighbors = 17373263
Ave neighs/atom = 542.57536
Ave special neighs/atom = 11.48782
Neighbor list builds = 275
Dangerous builds = 0
unfix md2

# STEP 2 - MD for thermal conductivity
# 2a - impose nve
fix md3 all nve

# 2b - impose heat flux
fix hot all ehex 1 ${heat_flux} region hot
fix hot all ehex 1 0.05 region hot
fix cold all ehex 1 ${heat_flux_neg} region cold
fix cold all ehex 1 -0.05 region cold

# 2c - calculate thermal profile
compute ke all ke/atom
variable temp atom c_ke/(1.5*0.001987204)

compute layers all chunk/atom bin/1d x lower 0.05 units reduced
fix bins all ave/chunk ${nEvery} ${nRepeat} ${tLog} layers v_temp file Tprofile_x_ehex.dat
fix bins all ave/chunk 10 ${nRepeat} ${tLog} layers v_temp file Tprofile_x_ehex.dat
fix bins all ave/chunk 10 100 ${tLog} layers v_temp file Tprofile_x_ehex.dat
fix bins all ave/chunk 10 100 1000 layers v_temp file Tprofile_x_ehex.dat

variable tdiff equal c_Thot-c_Tcold
fix ave all ave/time ${nEvery} ${nRepeat} ${tLog} v_tdiff ave running start ${diffT_delay}
fix ave all ave/time 10 ${nRepeat} ${tLog} v_tdiff ave running start ${diffT_delay}
fix ave all ave/time 10 100 ${tLog} v_tdiff ave running start ${diffT_delay}
fix ave all ave/time 10 100 1000 v_tdiff ave running start ${diffT_delay}
fix ave all ave/time 10 100 1000 v_tdiff ave running start 20000

# pre define kappa
variable kappa_inst equal 0
variable kappa equal 0

# 2d - thermo out
# dump dump_tc all custom 1000 dump.tc_x_ehex.lammpstrj id type mol x y z ix iy iz vx vy vz
thermo_style custom step time v_kappa v_kappa_inst c_Thot c_Tcold v_tdiff f_ave temp press enthalpy etotal ke pe
WARNING: New thermo_style command, previous thermo_modify settings will be lost (src/output.cpp:904)
thermo_modify colname v_kappa kappa colname v_kappa_inst kappa_inst colname c_Thot Temp_hot colname c_Tcold Temp_cold colname v_tdiff dTemp_step colname f_ave dTemp
thermo_modify flush yes
thermo ${tLog}
thermo 1000

# 2e - prerun
run ${tPrerun}
run 10000
PPPM initialization ...
  using 12-bit tables for long-range coulomb (src/kspace.cpp:342)
  G vector (1/distance) = 0.23713698
  grid = 45 36 36
  stencil order = 5
  estimated absolute RMS force accuracy = 0.00028675184
  estimated relative force accuracy = 8.6354464e-07
  using double precision FFTW3
  3d grid and FFT values/proc = 7200 3240
Generated 10 of 10 mixed pair_coeff terms from arithmetic mixing rule
Per MPI rank memory allocation (min/avg/max) = 18.19 | 18.28 | 18.73 Mbytes
   Step          Time          kappa        kappa_inst      Temp_hot      Temp_cold      dTemp_step       dTemp           Temp          Press         Enthalpy        TotEng         KinEng         PotEng    
     10000   10000          0              0              302.87115      299.59727      3.2738755      0              298.80037      74.129188      56914.001      56547.445      28518.272      28029.174    
     11000   11000          0              0              311.90215      303.51197      8.390178       0              301.09951     -36.004624      56368.232      56546.269      28737.708      27808.561    
     12000   12000          0              0              299.85116      314.79093     -14.939778      0              298.47804      336.57138      58211.448      56547.161      28487.508      28059.654    
     13000   13000          0              0              300.68289      293.9543       6.7285898      0              298.90523     -26.229182      56413.686      56543.385      28528.279      28015.106    
     14000   14000          0              0              298.73539      298.68854      0.046849494    0              301.04936      24.603684      56666.19       56544.529      28732.921      27811.608    
     15000   15000          0              0              307.38567      283.84483      23.540833      0              300.04331     -261.0319       55252.155      56542.912      28636.901      27906.011    
     16000   16000          0              0              318.84737      294.63053      24.216838      0              301.23043      209.88989      57586.52       56548.651      28750.202      27798.449    
     17000   17000          0              0              312.59032      289.09122      23.499103      0              297.9847       19.177991      56644.709      56549.877      28440.422      28109.455    
     18000   18000          0              0              312.11042      290.79943      21.310993      0              299.90752     -165.0126       55736.657      56552.616      28623.94       27928.675    
     19000   19000          0              0              323.91161      293.3478       30.563807      0              299.94688      268.52545      57866.342      56538.531      28627.697      27910.834    
     20000   20000          0              0              315.04265      285.26562      29.777027      29.43086       299.50071     -162.03591      55744.466      56545.706      28585.114      27960.592    
Loop time of 104.84 on 32 procs for 10000 steps with 32020 atoms

Performance: 8.241 ns/day, 2.912 hours/ns, 95.383 timesteps/s, 3.054 Matom-step/s
99.5% CPU use with 32 MPI tasks x 1 OpenMP threads

MPI task timing breakdown:
Section |  min time  |  avg time  |  max time  |%varavg| %total
---------------------------------------------------------------
Pair    | 67.653     | 75.039     | 84.057     |  39.4 | 71.57
Bond    | 1.8852     | 2.0566     | 2.3272     |   6.6 |  1.96
Kspace  | 8.697      | 17.762     | 24.699     |  79.8 | 16.94
Neigh   | 3.3033     | 3.4498     | 3.4798     |   2.4 |  3.29
Comm    | 2.9529     | 4.634      | 6.9079     |  48.3 |  4.42
Output  | 0.0014673  | 0.0015594  | 0.0021591  |   0.3 |  0.00
Modify  | 0.65118    | 1.6539     | 3.0113     |  64.9 |  1.58
Other   |            | 0.2441     |            |       |  0.23

Nlocal:        1000.62 ave        1052 max         928 min
Histogram: 1 2 1 1 3 7 7 7 1 2
Nghost:        11104.6 ave       11218 max       11007 min
Histogram: 3 2 3 4 3 10 2 2 2 1
Neighs:         542921 ave      598801 max      484554 min
Histogram: 2 1 2 3 7 4 7 4 1 1

Total # of neighbors = 17373461
Ave neighs/atom = 542.58154
Ave special neighs/atom = 11.48782
Neighbor list builds = 279
Dangerous builds = 0

# 2f - calc kappa
variable kappa_inst equal (${heat_flux}/(ly*lz)/2.0)*(lx/2.0)/v_tdiff*69478.5785
variable kappa_inst equal (0.05/(ly*lz)/2.0)*(lx/2.0)/v_tdiff*69478.5785
variable kappa equal (${heat_flux}/(ly*lz)/2.0)*(lx/2.0)/f_ave*69478.5785
variable kappa equal (0.05/(ly*lz)/2.0)*(lx/2.0)/f_ave*69478.5785

# 2g - md run for kappa calculation
# optional traj dump
if "${boolDump} == 1" then     "dump tc_dump all atom ${tDump} dump.tc_x.lammpstrj"
run ${tTCrun}
run 1000000
PPPM initialization ...
  using 12-bit tables for long-range coulomb (src/kspace.cpp:342)
  G vector (1/distance) = 0.23713698
  grid = 45 36 36
  stencil order = 5
  estimated absolute RMS force accuracy = 0.00028675184
  estimated relative force accuracy = 8.6354464e-07
  using double precision FFTW3
  3d grid and FFT values/proc = 7200 3240
Generated 10 of 10 mixed pair_coeff terms from arithmetic mixing rule
Per MPI rank memory allocation (min/avg/max) = 18.44 | 18.53 | 18.98 Mbytes
   Step          Time          kappa        kappa_inst      Temp_hot      Temp_cold      dTemp_step       dTemp           Temp          Press         Enthalpy        TotEng         KinEng         PotEng    
     20000   20000          0.58740481     0.57521611     315.32011      285.26562      30.054493      29.43086       299.50071     -162.03604      55744.466      56545.706      28585.114      27960.592    
     21000   21000          0.56467899     0.42672405     316.14398      275.63108      40.5129        30.615321      299.59567     -422.17792      54449.011      56536.606      28594.177      27942.43     
     22000   22000          0.53058362     0.39591415     321.3374       277.67181      43.665599      32.582665      299.53229      236.49618      57710.965      56541.533      28588.128      27953.405    
     23000   23000          0.49711182     0.49466205     318.44496      283.49619      34.948767      34.776539      300.47544      119.15968      57134.895      56545.671      28678.144      27867.527    
     24000   24000          0.46693378     0.40455062     319.45871      276.7253       42.733413      37.024155      297.90351     -336.34323      54886.683      56549.842      28432.673      28117.169    
     25000   25000          0.46145128     0.71172862     317.42227      293.13235      24.289916      37.464039      299.87444     -211.31419      55503.812      56548.723      28620.783      27927.94     
     26000   26000          0.4520091      0.38731143     327.20965      282.57417      44.635473      38.246639      300.11417      89.857861      56982.592      56538.26       28643.664      27894.596    
     27000   27000          0.44118919     0.41631014     324.02202      282.4957       41.526321      39.184615      299.85166      291.27137      57987.786      56547.5        28618.609      27928.891    
     28000   28000          0.43105275     0.34851377     327.19082      277.58638      49.604434      40.106063      300.07294      94.415758      57015.623      56548.754      28639.728      27909.025    
     29000   29000          0.42262617     0.29495216     330.10498      271.49266      58.612314      40.905722      299.98089      152.08369      57300.395      56548.368      28630.943      27917.425    
     30000   30000          0.41646433     0.34358183     326.90878      276.5923       50.316481      41.510947      300.30464     -113.68163      55988.936      56551.071      28661.842      27889.229    
     31000   31000          0.41343483     0.41436387     329.07034      287.34897      41.721371      41.815124      299.63996     -263.17346      55248.97       56550.316      28598.404      27951.913    
     32000   32000          0.40665187     0.32283132     327.53904      273.98838      53.550655      42.512601      299.60665     -82.545679      56135.989      56544.163      28595.225      27948.939    
     33000   33000          0.40429309     0.48551953     309.01069      273.40382      35.606866      42.760633      298.3379       549.74214      59270.554      56552.176      28474.132      28078.043    
     34000   34000          0.39888886     0.26900347     326.66597      262.39978      64.266191      43.339963      298.57542      56.791627      56834.799      56553.975      28496.802      28057.173    
     35000   35000          0.39362261     0.33258715     322.80629      270.82644      51.979846      43.919806      298.91484      683.61928      59928.365      56547.988      28529.196      28018.792    
     36000   36000          0.38860236     0.34203866     325.91781      275.37432      50.543494      44.487194      299.5478      -164.20317      55733.235      56545.19       28589.608      27955.583    
     37000   37000          0.38288152     0.3097139      332.48936      276.67066      55.818705      45.151901      299.99413      230.86544      57685.49       56543.901      28632.207      27911.694    
     38000   38000          0.37820035     0.30004733     329.44112      271.82412      57.617006      45.710769      300.45846     -303.12427      55049.451      56548.347      28676.524      27871.823    
     39000   39000          0.37462258     0.38607383     321.39695      276.6184       44.778556      46.147322      296.74516      384.57702      58457.292      56555.627      28322.117      28233.509    
     40000   40000          0.37285979     0.31036585     330.36889      274.66744      55.701452      46.365495      298.13997      227.52642      57675.469      56550.391      28455.241      28095.15     
     41000   41000          0.36890091     0.26630418     339.24647      274.32887      64.917601      46.863068      300.35693     -302.45327      55052.368      56547.946      28666.833      27881.113    
     42000   42000          0.36244596     0.30663463     328.92647      272.54723      56.379243      47.697672      299.68577     -125.3359       55924.497      56544.261      28602.776      27941.485    
     43000   43000          0.35822903     0.27406795     334.09901      271.02039      63.078621      48.25915       300.97139     -584.94158      53655.671      56548.104      28725.479      27822.625    
     44000   44000          0.35340316     0.29733842     327.4921       269.35018      58.141927      48.91815       299.09776      344.3039       58251.166      56548.643      28546.655      28001.988    
     45000   45000          0.34932569     0.28202693     332.64057      271.34207      61.298502      49.489142      299.82181     -744.24687      52870.929      56551.099      28615.76       27935.339    
     46000   46000          0.3474322      0.26812443     339.59963      275.12274      64.476888      49.758855      299.43273      204.6994       57562.31       56550.107      28578.625      27971.482    
     47000   47000          0.34527925     0.29522789     333.91657      275.359        58.557573      50.069121      298.66444     -378.23995      54676.966      56547.296      28505.298      28041.998    
     48000   48000          0.34303033     0.26590536     330.82947      265.81451      65.014968      50.397376      298.48922      219.40634      57637.1        56552.174      28488.574      28063.6      
     49000   49000          0.34004978     0.25602273     339.62061      272.09602      67.524586      50.839111      300.57968     -68.865058      56207.377      56547.903      28688.093      27859.81     
     50000   50000          0.33679365     0.28531615     334.10931      273.51747      60.591832      51.330625      300.69302     -35.542407      56374.551      56550.301      28698.911      27851.39     
     51000   51000          0.33333769     0.24736206     336.5646       266.67584      69.888764      51.862808      300.68738      38.160612      56736.382      56547.685      28698.372      27849.312    
     52000   52000          0.33085264     0.27750009     325.50537      263.20691      62.298462      52.252351      299.29894     -127.50057      55919.245      56549.713      28565.857      27983.856    
     53000   53000          0.3285493      0.26214531     323.19077      257.24327      65.947504      52.618674      300.21401     -53.565669      56279.032      56543.904      28653.192      27890.712    
     54000   54000          0.32597692     0.29954876     326.83831      269.12541      57.712903      53.033904      299.70567     -18.79582       56457          56549.942      28604.676      27945.267    
     55000   55000          0.32312065     0.25706323     328.94509      261.69381      67.251271      53.502704      297.54503     -348.0122       54826.954      56547.813      28398.459      28149.354    
     56000   56000          0.32063247     0.24032042     337.6372       265.70062      71.936578      53.917897      300.24628     -57.904096      56263.174      56549.5        28656.272      27893.227    
     57000   57000          0.31796942     0.2703991      330.22288      266.28838      63.934491      54.36947       299.30433     -193.16997      55590.577      56545.769      28566.37       27979.398    
     58000   58000          0.31610131     0.28125107     333.22505      271.75745      61.467602      54.690785      301.79998      371.41082      58381.626      56545.065      28804.562      27740.503    
     59000   59000          0.31371986     0.25812529     327.90716      260.9326       66.974563      55.105943      300.08729     -211.11096      55503.928      56547.835      28641.099      27906.736    
     60000   60000          0.31183045     0.23749279     330.30967      257.51661      72.793069      55.439834      298.82731     -167.61833      55719.178      56548.021      28520.843      28027.178    
     61000   61000          0.30939295     0.20883533     342.55686      259.77475      82.782106      55.876608      300.0358       362.3817       58336.294      56544.38       28636.184      27908.196    
     62000   62000          0.3067958      0.25525742     331.92066      264.19363      67.727037      56.349626      301.05815     -546.46708      53837.007      56539.191      28733.76       27805.431    
     63000   63000          0.30451597     0.23272695     329.64514      255.3614       74.283741      56.771502      298.1143      -287.10894      55132.761      56552.464      28452.791      28099.673    
     64000   64000          0.30281833     0.22361071     339.3646       262.05243      77.312169      57.089769      300.27092      356.10003      58307.803      56546.951      28658.624      27888.327    
     65000   65000          0.30101791     0.24631719     329.56077      259.37554      70.185229      57.431229      300.51522      10.345353      56590.481      56539.325      28681.941      27857.384    
     66000   66000          0.29914176     0.2459333      325.80811      255.51332      70.294785      57.791425      299.24629     -206.28663      55527.361      56547.412      28560.831      27986.58     
     67000   67000          0.29719202     0.25911828     330.93343      264.21553      66.717903      58.170568      299.31825     -159.18492      55756.995      56544.136      28567.699      27976.437    
     68000   68000          0.2955709      0.20528249     342.31191      258.09708      84.214823      58.489617      298.04975     -16.04301       56472.261      56551.591      28446.63       28104.962    
     69000   69000          0.29338999     0.21255718     340.76406      259.43146      81.332603      58.924397      299.02994     -87.827625      56110.095      56544.387      28540.182      28004.205    
     70000   70000          0.29170697     0.24085148     343.53377      271.75581      71.777962      59.264366      301.16748      390.31587      58474.374      56544.331      28744.195      27800.136    
     71000   71000          0.29002091     0.19925196     344.00742      257.24376      86.763656      59.608904      300.52125     -95.993443      56074.127      56548.797      28682.516      27866.281    
     72000   72000          0.28788885     0.17975655     344.47618      248.30261      96.173569      60.050358      298.74045      65.54747       56869.836      56545.715      28512.552      28033.163    
     73000   73000          0.28627486     0.20422112     347.19273      262.54023      84.652501      60.388916      301.46127     -384.23151      54640.118      56540.075      28772.234      27767.841    
     74000   74000          0.28511707     0.29916223     320.73838      262.9509       57.787472      60.634141      297.99393     -444.912        54351.058      56551.069      28441.302      28109.767    
     75000   75000          0.28405619     0.22526319     345.65524      268.91021      76.745024      60.860594      299.90976     -433.29457      54405.985      56548.55       28624.154      27924.396    
     76000   76000          0.2827343      0.22451531     332.34107      255.34041      77.000667      61.14514       300.86386      372.74052      58388.577      56545.441      28715.216      27830.225    
     77000   77000          0.2816278      0.25734201     328.66633      261.48791      67.178415      61.385377      297.79939      340.29825      58233.075      56550.36       28422.735      28127.625    
     78000   78000          0.28071199     0.23476442     334.61909      260.98004      73.639049      61.585644      300.54123      294.72249      58001.476      56544.125      28684.424      27859.701    
     79000   79000          0.27954288     0.20054307     341.55324      255.34817      86.205067      61.843208      299.54291      330.50408      58183.547      56549.263      28589.142      27960.121    
     80000   80000          0.27803742     0.20213529     344.23363      258.7076       85.52603       62.178064      299.95662      672.38821      59872.569      56547.728      28628.627      27919.101    
     81000   81000          0.27679847     0.28770899     325.71929      265.63139      60.087899      62.456374      300.77849      1164.727       62300.906      56541.535      28707.068      27834.467    
     82000   82000          0.27580316     0.21600222     346.88194      266.84652      80.035421      62.681765      299.73831     -116.11741      55978.502      56552.682      28607.791      27944.891    
     83000   83000          0.27463726     0.22903962     334.50862      259.02897      75.479642      62.947864      299.01518     -393.74189      54602.825      56549.81       28538.774      28011.036    
     84000   84000          0.27349814     0.1872641      351.26918      258.95128      92.317899      63.210041      299.44907      514.41887      59092.149      56548.438      28580.185      27968.253    
     85000   85000          0.2718792      0.18256118     349.90111      255.20502      94.696084      63.586433      299.76474      390.77727      58481.531      56549.206      28610.313      27938.893    
     86000   86000          0.27009751     0.16868318     350.23637      247.7494       102.48697      64.005879      299.03244      239.50488      57733.757      56549.448      28540.42       28009.027    
     87000   87000          0.26859373     0.21420642     337.12484      256.41844      80.706398      64.364229      296.24758     -340.64413      54873.093      56557.518      28274.627      28282.892    
     88000   88000          0.26689498     0.19740965     345.45012      257.87675      87.573371      64.773899      299.3747       57.393172      56833.913      56550.114      28573.087      27977.027    
     89000   89000          0.26539191     0.17416858     355.03136      255.77219      99.25917       65.140752      300.11984      606.40054      59546.401      56547.857      28644.205      27903.652    
     90000   90000          0.26403646     0.20144859     344.72911      258.91154      85.817571      65.475158      300.28734      13.894162      56611.068      56542.364      28660.192      27882.172    
     91000   91000          0.26287397     0.17854871     352.77366      255.9495       96.824159      65.764703      300.39205     -12.047008      56491.571      56551.141      28670.185      27880.956    
     92000   92000          0.26149696     0.21565306     335.60272      255.43772      80.165004      66.111012      298.46278      292.83151      58000.6        56552.6        28486.05       28066.549    
     93000   93000          0.26035953     0.19199135     345.68586      255.64103      90.04483       66.399829      298.86908     -159.94127      55756.381      56547.262      28524.829      28022.434    
     94000   94000          0.25932723     0.21699835     328.12831      248.46029      79.668019      66.664146      299.58361     -265.60459      55235.633      56549.001      28593.026      27955.975    
     95000   95000          0.25856664     0.22173229     338.92689      260.95977      77.967123      66.860243      300.12702      684.55784      59935.133      56550.115      28644.89       27905.225    
     96000   96000          0.25784421     0.18852726     345.56542      253.86606      91.699357      67.047575      299.43737      397.14681      58509.22       56545.399      28579.068      27966.331    
     97000   97000          0.25722961     0.21931996     329.91725      251.09256      78.824692      67.207772      298.38814     -190.58669      55604.588      56547.005      28478.927      28068.079    
     98000   98000          0.25649405     0.19890743     342.90886      255.99492      86.913942      67.400504      300.81152      604.90816      59541.066      56549.902      28710.221      27839.681    
     99000   99000          0.25581299     0.21130684     337.12595      255.31209      81.813861      67.579948      299.8713       88.133242      56982.834      56547.03       28620.484      27926.547    
    100000   100000         0.2552539      0.21664037     338.68836      258.88869      79.799663      67.727969      299.52971     -134.27032      55890.057      56554          28587.882      27966.118    
    101000   101000         0.25471119     0.18407385     348.26626      254.34836      93.917896      67.872279      300.00413      68.681353      56886.599      56546.982      28633.161      27913.821    
    102000   102000         0.25406702     0.18805772     345.76743      253.83912      91.928314      68.044363      300.69318      740.02801      60205.207      56545.898      28698.926      27846.972    
    103000   103000         0.25327791     0.18386273     350.03915      256.01341      94.025736      68.256363      299.84321      755.19948      60276.989      56542.66       28617.803      27924.858    
    104000   104000         0.25262032     0.23587359     328.34478      255.05201      73.29277       68.434039      300.03522     -226.24414      55429.365      56548.103      28636.129      27911.974    
    105000   105000         0.2520384      0.1837313      352.74577      258.65277      94.092995      68.592043      299.65875      34.478126      56719.992      56549.503      28600.197      27949.306    
    106000   106000         0.25126246     0.22802551     336.43925      260.62393      75.815327      68.803866      299.6782       266.89145      57870.249      56550.517      28602.053      27948.464    
    107000   107000         0.25055487     0.2124067      338.96132      257.5711       81.390221      68.998174      300.11749     -560.23297      53771.572      56541.825      28643.981      27897.844    
    108000   108000         0.25001955     0.17390468     352.83213      253.42234      99.409796      69.145906      299.83362     -411.15969      54515.796      56548.908      28616.887      27932.021    
    109000   109000         0.24955411     0.19088546     338.49865      247.93215      90.566504      69.274871      298.25536      763.59797      60328.993      56553.135      28466.254      28086.881    
    110000   110000         0.24905572     0.24888629     333.59895      264.1382       69.460752      69.413498      299.08617     -377.68162      54680.173      56547.743      28545.549      28002.194    
    111000   111000         0.24851554     0.22471041     343.46735      266.53354      76.933813      69.564377      299.89305     -224.48261      55434.347      56544.374      28622.56       27921.814    
    112000   112000         0.24814489     0.20690165     340.18012      256.62434      83.555779      69.668283      299.7056       66.576012      56878.471      56549.264      28604.669      27944.595    
    113000   113000         0.24789625     0.23758888     335.91692      263.15329      72.763626      69.738162      299.09877      454.81856      58795.91       56546.912      28546.751      28000.161    
    114000   114000         0.24759946     0.20354391     335.36267      250.42852      84.934148      69.821754      300.25741      918.42305      61087.461      56546.02       28657.335      27888.686    
    115000   115000         0.24712376     0.25705981     327.6863       260.43413      67.252163      69.956159      299.0053      -577.94256      53690.038      56547.862      28537.83       28010.032    
    116000   116000         0.24665686     0.19645823     337.72699      249.72951      87.997479      70.088578      301.10671     -95.011259      56071.903      56541.717      28738.394      27803.323    
    117000   117000         0.24626347     0.19854164     339.96262      252.88856      87.074068      70.20054       299.06137      52.310679      56811.524      56552.857      28543.182      28009.675    
    118000   118000         0.24577283     0.18759262     349.98898      257.83275      92.15623       70.340683      301.5511       351.03678      58287.585      56551.77       28780.808      27770.962    
    119000   119000         0.24527044     0.17763027     354.17385      256.84906      97.32479       70.484762      299.99871     -34.637789      56372.889      56544.166      28632.644      27911.522    
    120000   120000         0.24463183     0.21635382     338.08672      258.18137      79.905356      70.668763      298.97808     -124.03594      55936.177      56549.512      28535.232      28014.28     
    121000   121000         0.24394251     0.18209916     347.52518      252.58883      94.936344      70.868453      298.76384     -346.91275      54833.632      56549.055      28514.785      28034.27     
    122000   122000         0.24330018     0.2030766      342.34199      257.21239      85.129594      71.055553      300.82757     -158.07971      55761.557      56543.233      28711.752      27831.481    
    123000   123000         0.24264114     0.18231217     340.94166      246.11624      94.825423      71.248547      299.30898     -7.8023193      56512.634      56551.215      28566.815      27984.4      
    124000   124000         0.24187983     0.16468555     355.3934       250.41863      104.97478      71.472799      298.72504     -242.5253       55350.274      56549.519      28511.082      28038.437    
    125000   125000         0.24115377     0.20280322     339.33914      254.09479      85.244349      71.687987      300.28334      330.16538      58175.065      56542.456      28659.81       27882.646    
    126000   126000         0.24048097     0.14630213     363.51328      245.34802      118.16525      71.888551      301.07265      364.73169      58349.245      56545.711      28735.144      27810.567    
    127000   127000         0.2397673      0.16928868     354.92449      252.80409      102.1204       72.102529      302.33134     -712.32165      53024.984      56547.289      28855.277      27692.012    
    128000   128000         0.23908333     0.20960008     337.97202      255.49195      82.480068      72.308799      299.85425      147.0604       57276.642      56549.454      28618.856      27930.598    
    129000   129000         0.23853758     0.17916588     345.13677      248.64614      96.490631      72.474234      300.11432      385.42289      58451.687      56545.838      28643.678      27902.16     
    130000   130000         0.2379323      0.1861366      337.73869      244.86158      92.877104      72.658602      299.73014      352.01985      58284.933      56544.257      28607.011      27937.246    
    131000   131000         0.23739943     0.17331994     357.46844      257.72327      99.745179      72.821693      299.05073      165.81807      57369.134      56549.193      28542.166      28007.026    
    132000   132000         0.23687144     0.21474639     338.03774      257.53428      80.503467      72.984015      298.58565      202.77015      57550.208      56547.545      28497.778      28049.767    
    133000   133000         0.23626451     0.20323771     345.7758       260.71369      85.06211       73.171499      300.51439      618.7368       59606.296      56546.752      28681.861      27864.89     
    134000   134000         0.23576381     0.20613766     335.96092      252.09546      83.865454      73.326896      298.12147      408.28693      58568.649      56549.742      28453.475      28096.266    
    135000   135000         0.2352793      0.20492678     340.96101      256.60001      84.361004      73.477898      299.95898     -188.47597      55616.077      56548.058      28628.852      27919.205    
    136000   136000         0.23486615     0.20926045     340.66879      258.05486      82.613932      73.607152      297.99121      373.54272      58394.801      56547.698      28441.043      28106.655    
    137000   137000         0.23423226     0.18851832     343.28445      251.58074      91.703707      73.806351      300.45912     -438.79244      54378.692      56548.444      28676.587      27871.857    
    138000   138000         0.23357234     0.18313906     347.39207      252.99479      94.397276      74.01488       299.00963      219.849        57636.99       56549.875      28538.244      28011.631    
    139000   139000         0.23310097     0.2023307      333.30436      247.86094      85.443428      74.16455       299.24458     -359.33822      54769.389      56546.253      28560.668      27985.585    
    140000   140000         0.23275857     0.18069579     347.72872      252.05505      95.673668      74.273649      300.47859     -411.47657      54512.666      56547.345      28678.445      27868.9      
    141000   141000         0.23229156     0.18831994     350.11008      258.30977      91.800308      74.422973      299.6202       81.394034      56952.085      56549.606      28596.518      27953.087    
    142000   142000         0.2318845      0.20430967     343.14563      258.52981      84.615814      74.55362       298.45183      383.78635      58450.901      56553.144      28485.006      28068.138    
    143000   143000         0.23154323     0.19456151     344.25899      255.40365      88.855339      74.663503      297.12717     -458.39759      54288.683      56555.378      28358.577      28196.802    
    144000   144000         0.23116184     0.17667043     349.05962      251.20607      97.85355       74.786688      299.98385      261.11451      57835.395      56544.229      28631.226      27913.003    
    145000   145000         0.2307217      0.17743434     349.94388      252.51162      97.432258      74.929358      299.25138      262.79728      57843.867      56544.381      28561.317      27983.063    
    146000   146000         0.23037064     0.17259558     348.09548      247.93168      100.1638       75.04354       299.66557      283.89765      57951.603      56547.779      28600.848      27946.931    
    147000   147000         0.2300131      0.21452434     338.05448      257.46769      80.586795      75.160193      298.79915      409.95904      58575.498      56548.323      28518.155      28030.168    
    148000   148000         0.22972659     0.18124412     350.52773      255.14351      95.384219      75.25393       300.26798     -100.96584      56047.795      56547.053      28658.344      27888.71     
    149000   149000         0.22940803     0.1938981      346.11993      256.96058      89.159352      75.358427      298.98954     -218.11411      55469.671      56548.207      28536.326      28011.88     
    150000   150000         0.22909464     0.20741383     338.17178      254.82233      83.34945       75.461516      298.94008     -527.10507      53940.352      56546.794      28531.605      28015.188    
    151000   151000         0.22871488     0.19926783     351.11147      264.35472      86.756749      75.586811      300.72189     -148.99191      55806.169      56542.908      28701.666      27841.242    
    152000   152000         0.22833843     0.19367341     344.00193      254.73914      89.262788      75.711428      300.74338     -226.36982      55430.771      56550.13       28703.717      27846.413    
    153000   153000         0.22790639     0.17952018     346.69112      250.39092      96.300194      75.854953      300.29944      625.46488      59644.076      56551.262      28661.347      27889.916    
    154000   154000         0.22751763     0.19192832     344.89471      254.82031      90.074401      75.984568      298.05313      105.04847      57079.456      56560.01       28446.953      28113.057    
    155000   155000         0.22708258     0.14853478     356.89796      240.50886      116.3891       76.130141      300.42946     -11.296991      56489.977      56545.839      28673.756      27872.083    
    156000   156000         0.2265246      0.17172276     353.86015      253.18724      100.6729       76.317664      298.98102     -433.49492      54397.64       56541.196      28535.513      28005.683    
    157000   157000         0.22603366     0.16957846     352.3959       250.45         101.9459       76.483427      299.05696      684.28036      59934.987      56551.341      28542.761      28008.579    
    158000   158000         0.22567302     0.19003604     346.5645       255.59318      90.971315      76.605651      300.7775      -360.49824      54764.421      56547.022      28706.973      27840.048    
    159000   159000         0.2253397      0.1981532      341.4863       254.24154      87.244759      76.718965      297.15851     -538.38763      53888.708      56550.94       28361.568      28189.373    
    160000   160000         0.22500916     0.2028111      344.26889      259.02785      85.241037      76.831666      300.51337     -291.91874      55103.774      56547.261      28681.764      27865.497    
    161000   161000         0.22470768     0.18684025     354.10964      261.58232      92.527323      76.934746      298.74452      285.00241      57962.831      56553.544      28512.941      28040.603    
    162000   162000         0.22440711     0.19769419     342.83466      255.38733      87.447326      77.037793      299.48136      167.37782      57379.698      56552.044      28583.267      27968.777    
    163000   163000         0.22421241     0.19211517     344.72262      254.73582      89.986796      77.104692      298.60976      261.05174      57838.26       56547.405      28500.079      28047.326    
    164000   164000         0.22394269     0.18357182     346.80124      252.6265       94.174739      77.197557      300.69988      335.60502      58199.196      56539.688      28699.566      27840.122    
    165000   165000         0.22370214     0.17167292     348.1553       247.45318      100.70213      77.28057       300.04861     -2.587094       56533.369      56546.161      28637.406      27908.755    
    166000   166000         0.2233717      0.21478493     340.08662      259.5976       80.489019      77.394892      297.25255      141.93765      57250.199      56548.342      28370.543      28177.799    
    167000   167000         0.22303448     0.18310764     343.29982      248.88634      94.413473      77.511912      298.94544     -181.22165      55648.781      56544.89       28532.118      28012.772    
    168000   168000         0.22268278     0.17153893     349.25338      248.47259      100.78079      77.63433       301.5512       79.206507      56935.558      56543.896      28780.818      27763.078    
    169000   169000         0.22233635     0.18142173     341.61605      246.32521      95.290836      77.755296      300.36176      23.710012      56662.843      56545.601      28667.294      27878.307    
    170000   170000         0.22202534     0.18478868     343.78903      250.23445      93.554588      77.864214      300.53149     -191.13149      55601.43       56546.542      28683.494      27863.048    
    171000   171000         0.22167963     0.16241113     354.42261      247.97775      106.44485      77.985644      299.8693      -615.03608      53505.111      56546.356      28620.293      27926.063    
    172000   172000         0.22141719     0.18610552     348.94762      256.05501      92.892616      78.078077      300.4598       369.12532      58369.93       56544.67       28676.652      27868.018    
    173000   173000         0.22118411     0.20958932     334.88482      252.40052      82.4843        78.160354      298.42698     -237.90872      55375.737      56552.154      28482.634      28069.52     
    174000   174000         0.2209042      0.16892452     344.91415      242.5736       102.34055      78.259393      299.92268      293.17395      57991.778      56542.084      28625.388      27916.696    
    175000   175000         0.22054994     0.16481583     355.46832      250.57652      104.8918       78.385098      303.15278     -431.83828      54400.381      56535.746      28933.677      27602.069    
    176000   176000         0.22030326     0.17849002     347.86574      251.00974      96.855995      78.472866      299.37874      71.614155      56895.911      56541.792      28573.473      27968.319    
    177000   177000         0.22001968     0.18166288     349.66172      254.49738      95.164346      78.574011      299.4263       658.38252      59799.004      56543.418      28578.012      27965.406    
    178000   178000         0.21970302     0.19726639     341.94263      254.30567      87.636969      78.68726       298.80053      132.40661      57203.578      56548.851      28518.287      28030.564    
    179000   179000         0.21946747     0.17049004     348.59111      247.19029      101.40081      78.771712      299.85969     -503.39054      54054.917      56544.095      28619.375      27924.72     
    180000   180000         0.21917668     0.16892724     352.4447       250.1058       102.33891      78.876223      298.42913     -67.069178      56221.656      56553.301      28482.839      28070.462    
    181000   181000         0.21887728     0.17886625     348.90653      252.25426      96.652266      78.984118      297.87363     -61.750551      56247.015      56552.361      28429.821      28122.54     
    182000   182000         0.21858049     0.18002826     347.5655       251.53709      96.028416      79.091363      300.15879      11.074694      56596.594      56541.832      28647.923      27893.909    
    183000   183000         0.21822284     0.18623786     337.67513      244.84853      92.826605      79.220987      298.89286     -145.95201      55828.912      56550.619      28527.099      28023.521    
    184000   184000         0.21794875     0.17528745     348.4002       249.77461      98.625591      79.320614      298.575        378.91284      58417.862      56544.204      28496.762      28047.443    
    185000   185000         0.21771682     0.19562925     342.75235      254.38199      88.370366      79.405112      299.1048      -132.17035      55892.19       56545.749      28547.327      27998.422    
    186000   186000         0.21745512     0.19091023     343.71082      253.15607      90.554751      79.500674      300.22341      148.58903      57275.338      56540.591      28654.09       27886.501    
    187000   187000         0.21724502     0.1847972      349.83577      256.2855       93.550274      79.57756       299.95053     -124.07215      55932.143      56545.658      28628.045      27917.613    
    188000   188000         0.21699989     0.18696934     342.04705      249.58361      92.46344       79.667453      298.44161      101.9423       57053.609      56549.522      28484.03       28065.492    
    189000   189000         0.21680884     0.20353371     345.02774      260.08933      84.938403      79.737657      299.64149      247.64545      57771.31       56546.747      28598.55       27948.197    
    190000   190000         0.21667862     0.18990437     345.28793      254.25354      91.034389      79.785575      299.28594     -210.52268      55502.652      56543.65       28564.615      27979.034    
    191000   191000         0.2164803      0.18539003     345.99873      252.74761      93.251122      79.858667      300.16257     -152.89356      55793.049      56549.081      28648.283      27900.798    
    192000   192000         0.21630082     0.16887007     346.62492      244.25137      102.37355      79.924935      298.6633       168.25471      57381.104      56549.114      28505.189      28043.925    
    193000   193000         0.21608541     0.16644358     358.5708       254.7048       103.866        80.004608      302.10902      327.90672      58158.381      56536.94       28834.058      27702.882    
    194000   194000         0.21589803     0.17638342     356.36136      258.34858      98.012777      80.074044      299.13758      190.83223      57488.015      56544.383      28550.455      27993.928    
    195000   195000         0.21571735     0.18484424     341.42966      247.90319      93.526468      80.141113      298.96458      328.31326      58173.358      56549.907      28533.944      28015.963    
    196000   196000         0.21550429     0.19113384     344.26388      253.81507      90.448811      80.220347      301.26043     -200.31952      55553.872      56544.417      28753.066      27791.351    
    197000   197000         0.21529355     0.18942796     346.65429      255.39095      91.263344      80.298871      300.5104       2.5202746      56558.654      56546.192      28681.481      27864.711    
    198000   198000         0.21508071     0.18201242     348.69317      253.71158      94.98159       80.378331      301.29865      440.185        58722.489      56545.852      28756.713      27789.138    
    199000   199000         0.21477527     0.18403266     350.79072      256.8518       93.938915      80.492642      299.67361      65.409786      56870.159      56546.719      28601.615      27945.104    
    200000   200000         0.21452503     0.17274837     353.12291      253.04771      100.07521      80.586533      300.25439      720.42286      60105.882      56543.517      28657.047      27886.471    
    201000   201000         0.21431631     0.19601547     338.20009      250.00385      88.196245      80.665018      298.78691      500.96659      59027.266      56550.075      28516.986      28033.088    
    202000   202000         0.21410121     0.17290763     357.53179      257.54876      99.983031      80.746057      300.773       -149.24654      55804.581      56542.579      28706.544      27836.035    
    203000   203000         0.21389579     0.18074583     349.55815      253.91097      95.647181      80.823603      298.83348     -142.39273      55848.678      56552.785      28521.431      28031.354    
    204000   204000         0.21377039     0.18119964     347.04153      251.6339       95.40763       80.871017      299.96175      1121.7301      62090.553      56543.795      28629.116      27914.679    
    205000   205000         0.21366484     0.2298519      331.71868      256.50577      75.212904      80.910967      300.70972     -382.25948      54655.723      56545.928      28700.504      27845.424    
    206000   206000         0.21359494     0.22389358     332.85717      255.64268      77.214489      80.937446      299.7383       200.51987      57534.146      56542.61       28607.79       27934.821    
    207000   207000         0.21346509     0.189783       338.03225      246.93963      91.092611      80.986677      298.90814      469.60599      58875.919      56553.8        28528.557      28025.244    
    208000   208000         0.21326617     0.1639026      355.06433      249.5881       105.47623      81.062218      301.41079      85.157713      56964.947      56543.857      28767.417      27776.44     
    209000   209000         0.21308001     0.18266468     341.38627      246.74384      94.642427      81.13304       300.08804      39.639639      56741.799      56545.788      28641.17       27904.618    
    210000   210000         0.21288427     0.18626237     342.22971      249.41531      92.814393      81.207636      297.91372      496.88533      59005.545      56548.534      28433.648      28114.887    
    211000   211000         0.21271782     0.1820792      341.92358      246.97683      94.946753      81.271183      299.79934      35.646674      56723.546      56547.279      28613.616      27933.664    
    212000   212000         0.21260158     0.17411781     343.7469       244.45879      99.288111      81.315615      299.62075     -177.53782      55672.998      56550.891      28596.57       27954.321    
    213000   213000         0.2124204      0.1772009      340.10113      242.54052      97.560616      81.384972      300.23975     -284.44173      55144.45       56550.964      28655.65       27895.314    
    214000   214000         0.21228019     0.18235067     342.97583      248.17043      94.805402      81.438729      299.28522     -350.32818      54814.269      56546.58       28564.546      27982.034    
    215000   215000         0.21216643     0.20704919     338.79723      255.30099      83.49624       81.482396      300.40971      317.52509      58119.836      56549.73       28671.871      27877.859    
    216000   216000         0.21205564     0.17169257     347.42068      246.73008      100.6906       81.524963      299.98369      52.572164      56807.863      56547.903      28631.211      27916.692    
    217000   217000         0.21196028     0.18481589     333.14642      239.60561      93.540814      81.561642      298.43808     -599.02436      53591.025      56553.095      28483.694      28069.402    
    218000   218000         0.21184477     0.1769956      344.50251      246.82873      97.673777      81.606114      299.87871      41.232852      56749.948      56546.059      28621.191      27924.868    
    219000   219000         0.21169492     0.19705393     337.44014      249.70868      87.73146       81.663879      299.93995     -125.46772      55935.831      56556.246      28627.036      27929.21     
    220000   220000         0.21162575     0.19726782     338.08988      250.45354      87.636335      81.690573      299.46751     -428.01428      54437.866      56554.322      28581.945      27972.377    
    221000   221000         0.2115426      0.20806376     344.61738      261.52829      83.089089      81.722681      301.62172      582.8722       59428.206      56546.005      28787.548      27758.457    
    222000   222000         0.21141726     0.19197018     347.35767      257.30291      90.054762      81.771131      299.32833     -492.0113       54115.677      56548.586      28568.661      27979.925    
    223000   223000         0.21128555     0.21650447     330.35657      250.50682      79.849754      81.822106      299.09409      326.65342      58161.659      56546.415      28546.305      28000.111    
    224000   224000         0.21121921     0.18816318     337.44097      245.56418      91.87679       81.847805      300.15926     -464.61392      54251.548      56548.982      28647.967      27901.015    
    225000   225000         0.21117802     0.22892702     328.97551      253.45875      75.516767      81.863768      298.77806     -337.98427      54872.914      56544.186      28516.142      28028.045    
    226000   226000         0.21108676     0.20574979     339.26         255.23644      84.023555      81.89916       300.7817      -97.285715      56064.112      56545.172      28707.375      27837.798    
    227000   227000         0.21094922     0.20660406     339.60148      255.92535      83.676131      81.952558      298.61889      414.18583      58596.797      56548.721      28500.95       28047.771    
    228000   228000         0.21085327     0.18916805     344.72201      253.33327      91.388736      81.989852      301.33916      182.50414      57441.551      56539.1        28760.58       27778.52     
    229000   229000         0.21073784     0.23561918     330.54449      257.17258      73.371908      82.034764      299.17905     -112.16029      55994.109      56548.721      28554.414      27994.308    
    230000   230000         0.21060879     0.1810422      345.97836      250.48776      95.4906        82.085029      299.42836      251.45007      57792.002      56548.626      28578.208      27970.418    
    231000   231000         0.21048004     0.18800625     340.6219       248.66842      91.953478      82.135241      298.22312     -421.27965      54465.813      56548.966      28463.177      28085.789    
    232000   232000         0.21035491     0.21949835     343.02762      264.26699      78.760631      82.184098      299.77911     -246.50511      55327.126      56546.05       28611.685      27934.365    
    233000   233000         0.21034075     0.2190718      334.23933      255.32535      78.913984      82.189632      301.10616      348.37471      58264.471      56541.819      28738.342      27803.477    
    234000   234000         0.21031556     0.23752042     329.7798       256.9952       72.784598      82.199475      298.87435     -214.38613      55490.539      56550.641      28525.333      28025.308    
    235000   235000         0.21024869     0.17314821     338.72108      238.87697      99.844108      82.22562       298.75814     -571.52718      53718.64       56544.741      28514.241      28030.5      
    236000   236000         0.21017412     0.18669569     348.94761      256.34865      92.598969      82.254791      298.48245      94.58611       57012.976      56545.264      28487.928      28057.336    
    237000   237000         0.21012239     0.22793889     330.06808      254.22394      75.844136      82.275041      300.25997     -1281.0704      50205.136      56539.804      28657.579      27882.225    
    238000   238000         0.21005688     0.1968158      344.28411      256.44651      87.837604      82.300701      299.93529     -170.47238      55711.26       56554.216      28626.591      27927.625    
    239000   239000         0.20999927     0.1856655      350.97731      257.86454      93.112768      82.32328       301.01335      159.50339      57336.715      56547.999      28729.484      27818.515    
    240000   240000         0.20999204     0.19280217     345.30145      255.6353       89.666153      82.326115      300.65535     -351.45767      54809.311      56547.208      28695.315      27851.893    
    241000   241000         0.20994859     0.1825435      342.89004      248.18478      94.705254      82.343153      300.16799      147.7665       57280.846      56550.167      28648.8        27901.366    
    242000   242000         0.20988418     0.19971982     343.44381      256.88341      86.560407      82.368423      300.6525       13.40672       56613.951      56547.657      28695.043      27852.614    
    243000   243000         0.20984257     0.18244048     345.03022      250.27148      94.758734      82.384756      299.58203     -153.19901      55790.767      56548.309      28592.875      27955.435    
    244000   244000         0.20975867     0.19126188     345.66511      255.27685      90.388261      82.417708      298.33806     -591.86972      53620.947      56547.639      28474.147      28073.492    
    245000   245000         0.20970161     0.20946219     334.36821      251.83385      82.534364      82.440133      298.73374      329.17245      58174.241      56546.541      28511.912      28034.629    
    246000   246000         0.20968207     0.22302315     332.65971      255.14386      77.515848      82.447815      299.63398      56.295973      56827.909      56549.535      28597.833      27951.702    
    247000   247000         0.20963489     0.24233382     328.3112       256.97229      71.338902      82.466371      299.82787     -27.21331       56407.872      56542.437      28616.338      27926.098    
    248000   248000         0.20958819     0.23298812     326.69814      252.49767      74.200471      82.484747      297.84878     -255.81259      55286.114      56551.062      28427.45       28123.612    
    249000   249000         0.20958505     0.21879221     335.17754      256.16271      79.014825      82.485984      300.6028       1.0756963      56554.701      56549.382      28690.3        27859.082    
    250000   250000         0.20955513     0.2620936      333.10718      267.14667      65.960515      82.497761      299.44955     -295.95848      55083.929      56547.392      28580.23       27967.161    
    251000   251000         0.20952057     0.1880979      340.13397      248.22529      91.908676      82.511368      300.18861     -415.30499      54495.943      56549.553      28650.768      27898.785    
    252000   252000         0.20945331     0.20883771     341.40345      258.62229      82.781165      82.537863      301.61036     -256.31523      55274.944      56542.378      28786.464      27755.913    
    253000   253000         0.20942042     0.19772177     339.4045       251.96937      87.435129      82.550828      300.81291      279.75014      57931.688      56548.372      28710.353      27838.019    
    254000   254000         0.20934603     0.16411239     348.46691      243.12551      105.3414       82.580158      297.94559     -38.673221      56357.807      56549.04       28436.689      28112.351    
    255000   255000         0.20928325     0.18895438     342.74301      251.25093      91.492077      82.604934      299.88669     -97.294467      56064.073      56545.177      28621.952      27923.225    
    256000   256000         0.20921757     0.21295089     333.42264      252.24041      81.182234      82.630866      297.52784     -343.4396       54855.323      56553.571      28396.818      28156.754    
    257000   257000         0.20914432     0.18793473     343.24559      251.25712      91.98847       82.659803      298.41349      221.51902      57640.724      56545.351      28481.346      28064.005    
    258000   258000         0.20904729     0.16438376     353.89217      248.72467      105.1675       82.698171      299.30794      41.110024      56750.487      56547.205      28566.715      27980.49     
    259000   259000         0.20893965     0.1798611      347.56023      251.44256      96.117664      82.740774      300.13907      252.35212      57792.426      56544.59       28646.04       27898.549    
    260000   260000         0.20883773     0.18115133     339.70174      244.26866      95.433078      82.781156      299.97674      28.197735      56679.083      56539.651      28630.547      27909.103    
    261000   261000         0.20876623     0.18950213     340.24821      249.02059      91.227619      82.809508      300.50612      568.28662      59355.216      56545.139      28681.072      27864.066    
    262000   262000         0.20864893     0.18657044     342.73305      250.07192      92.661135      82.856062      299.73198      176.43377      57421.166      56548.732      28607.186      27941.546    
    263000   263000         0.20855696     0.19247547     342.6504       252.83205      89.818347      82.892599      299.63212     -832.63886      52431.821      56549.074      28597.655      27951.419    
    264000   264000         0.20843703     0.17587497     343.32219      245.02606      98.296129      82.940295      301.72013      306.03436      58052.309      56539.023      28796.941      27742.081    
    265000   265000         0.20833477     0.16588673     354.41994      250.20528      104.21466      82.981003      300.47899     -234.84559      55379.063      56540.334      28678.483      27861.85     
    266000   266000         0.20824776     0.17347718     350.90264      251.24787      99.654772      83.015678      299.68537     -270.41514      55209.081      56546.237      28602.738      27943.499    
    267000   267000         0.20816144     0.22097109     338.11677      259.88107      78.235704      83.050102      298.89218     -185.93097      55634.254      56553.65       28527.033      28026.617    
    268000   268000         0.20807015     0.19647883     341.89417      253.90592      87.988252      83.086541      298.26381     -179.7767       55664.773      56553.738      28467.06       28086.677    
    269000   269000         0.2079581      0.21372728     329.32031      248.43298      80.887328      83.131307      300.30549      214.41569      57601.403      56541.155      28661.924      27879.231    
    270000   270000         0.20786815     0.2150797      334.703        254.32429      80.378711      83.16728       299.63131     -306.96013      55032.481      56550.345      28597.578      27952.767    
    271000   271000         0.20777965     0.18617535     345.47382      252.61605      92.857772      83.202703      299.91243     -152.11845      55793.863      56546.062      28624.409      27921.653    
    272000   272000         0.20767997     0.17302831     350.12433      250.21103      99.913296      83.24264       300.34362      209.85875      57589.994      56552.279      28665.563      27886.716    
    273000   273000         0.20760561     0.18302126     344.79595      250.33791      94.458037      83.272456      298.02057     -28.427439      56408.428      56548.996      28443.845      28105.151    
    274000   274000         0.20754745     0.16556667     351.17993      246.76381      104.41612      83.295788      298.23646     -219.74681      55460.096      56546.705      28464.45       28082.255    
    275000   275000         0.20745821     0.19392347     336.64952      247.50184      89.147686      83.33162       299.64075     -505.16573      54051.13       56549.086      28598.479      27950.606    
    276000   276000         0.20738077     0.19269678     341.23609      251.5209       89.715192      83.362739      300.14618     -83.288245      56135.989      56547.835      28646.719      27901.116    
    277000   277000         0.20730736     0.20417506     347.43411      262.76252      84.671596      83.392257      300.51502      180.65458      57439.817      56546.512      28681.922      27864.59     
    278000   278000         0.20721045     0.17636027     351.29078      253.26514      98.025639      83.431258      299.13646      312.85828      58099.76       56552.731      28550.348      28002.383    
    279000   279000         0.20708674     0.16833861     366.24114      263.54439      102.69675      83.481099      301.47126     -389.63434      54619.202      56545.875      28773.188      27772.687    
    280000   280000         0.20694836     0.18183189     347.77572      252.69983      95.075887      83.536918      299.10995     -80.441083      56149.032      56546.799      28547.818      27998.981    
    281000   281000         0.20686053     0.20589071     340.2982       256.33216      83.966046      83.57239       299.96594     -354.67642      54790.705      56544.517      28629.516      27915.002    
    282000   282000         0.20681433     0.19108105     346.12349      255.64969      90.473798      83.591058      299.18836     -274.52707      55191.533      56549.021      28555.302      27993.719    
    283000   283000         0.20676968     0.17966058     346.34815      250.1232       96.224942      83.609108      298.97022      510.73972      59075.68       56550.162      28534.482      28015.68     
    284000   284000         0.20667854     0.19096314     347.63333      257.10366      90.529661      83.645978      299.58591     -251.95959      55298.359      56544.255      28593.245      27951.01     
    285000   285000         0.20665002     0.20575463     340.61371      256.59213      84.021577      83.657522      299.36833      584.64702      59441.144      56550.167      28572.479      27977.688    
    286000   286000         0.20659149     0.18948107     344.48703      253.24926      91.237763      83.681225      300.28541     -118.82519      55963.251      56550.82       28660.007      27890.813    
    287000   287000         0.20656849     0.1849713      344.58485      251.12263      93.462221      83.690543      299.47055      109.34972      57086.962      56546.247      28582.235      27964.012    
    288000   288000         0.20652084     0.21654917     342.48162      262.64835      79.83327       83.709851      300.25469      375.90895      58413.809      56555.006      28657.075      27897.93     
    289000   289000         0.20642436     0.18327649     344.45187      250.12538      94.326493      83.748976      300.23861      326.08505      58155.621      56543.187      28655.541      27887.646    
    290000   290000         0.20635123     0.17683125     354.73415      256.96959      97.764557      83.778654      300.90197     -970.84159      51747.036      56547.676      28718.853      27828.823    
    291000   291000         0.20632314     0.21502224     338.03869      257.63851      80.400188      83.790061      298.83783      174.47902      57412.477      56549.709      28521.847      28027.862    
    292000   292000         0.20622336     0.17817195     355.42141      258.39251      97.028901      83.830601      301.29634      453.32582      58793.464      56551.848      28756.493      27795.354    
    293000   293000         0.20613375     0.19030124     350.54709      259.70255      90.844542      83.867047      301.76924     -420.25555      54465.077      56543.167      28801.628      27741.539    
    294000   294000         0.20612773     0.198074       344.78662      257.50697      87.279646      83.869494      300.16333      195.18746      57516.458      56551.29       28648.356      27902.934    
    295000   295000         0.20609808     0.2028593      332.3798       247.15901      85.220786      83.881562      300.02935      499.36748      59022.554      56553.27       28635.568      27917.702    
    296000   296000         0.20607056     0.22562412     334.15908      257.53683      76.622253      83.892764      299.58971      273.77855      57905.755      56551.968      28593.608      27958.36     
    297000   297000         0.20602161     0.17695076     350.32835      252.62982      97.698525      83.912698      300.72827      144.8432       57262.716      56546.492      28702.275      27844.218    
    298000   298000         0.20599073     0.20961209     333.1364       250.66107      82.475339      83.925274      300.28347      23.259657      56661.529      56546.514      28659.822      27886.692    
    299000   299000         0.20594975     0.1837649      351.67126      257.59547      94.075792      83.941974      299.28473      362.62523      58344.92       56551.802      28564.5        27987.301    
    300000   300000         0.20589556     0.20400918     331.66444      246.92399      84.740446      83.964068      300.47652      235.07744      57708.459      56546.043      28678.247      27867.795    
    301000   301000         0.20584376     0.20747114     331.24674      247.92032      83.326426      83.985196      298.88713      589.36031      59463.649      56549.366      28526.552      28022.815    
    302000   302000         0.20578939     0.19896142     338.48489      251.59454      86.890355      84.007386      299.99935      275.92566      57916.403      56551.999      28632.705      27919.294    
    303000   303000         0.20568281     0.16070587     353.16878      245.59444      107.57434      84.050916      299.73366      700.92144      60012.595      56546.661      28607.347      27939.315    
    304000   304000         0.20558271     0.17616081     347.60082      249.46419      98.136629      84.09184       300.80546      10.058509      56598.61       56548.873      28709.642      27839.231    
    305000   305000         0.20543418     0.18349704     347.41427      253.20115      94.213121      84.152638      299.43898      12.235616      56608.429      56547.926      28579.222      27968.704    
    306000   306000         0.20533117     0.19734365     341.6443       254.04164      87.602658      84.194859      300.60258     -136.71114      55872.75       56548.763      28690.279      27858.483    
    307000   307000         0.205258       0.17249308     347.85422      247.6309       100.22332      84.22487       300.04081      208.44634      57574.795      56544.064      28636.662      27907.402    
    308000   308000         0.20516329     0.17195086     345.2613       244.72195      100.53935      84.263752      298.96629      413.31118      58592.764      56549.013      28534.107      28014.906    
    309000   309000         0.2050448      0.17708449     346.70975      249.08501      97.624748      84.312447      298.74032      156.48934      57319.936      56546.124      28512.54       28033.583    
    310000   310000         0.20495173     0.17036555     347.26406      245.78915      101.47491      84.350731      301.73023      425.2157       58648.716      56546.1        28797.905      27748.194    
    311000   311000         0.20490343     0.18846041     344.12808      252.39619      91.731884      84.370614      298.23598      50.498659      56802.239      56552.532      28464.405      28088.127    
    312000   312000         0.20487482     0.18493247     348.84184      255.36         93.481847      84.382399      301.23467     -220.43545      55455.59       56545.604      28750.607      27794.997    
    313000   313000         0.20485757     0.18741713     343.14944      250.90692      92.24252       84.389503      300.15253     -346.47403      54835.868      56549.121      28647.325      27901.797    
    314000   314000         0.20480688     0.16744963     348.02932      244.78735      103.24197      84.41039       299.24001     -32.402473      56383.476      56543.7        28560.231      27983.469    
    315000   315000         0.20475697     0.19987641     346.79124      260.29865      86.492593      84.430967      300.37146      497.41518      59003.918      56544.288      28668.22       27876.068    
    316000   316000         0.20472096     0.22612626     331.20352      254.75141      76.452107      84.445818      298.05369      298.58962      58028.338      56551.865      28447.006      28104.859    
    317000   317000         0.20470295     0.21123632     341.66358      259.8224       81.841175      84.453246      299.77625      235.11655      57713.829      56551.219      28611.412      27939.807    
    318000   318000         0.20462466     0.18143084     351.83938      256.55332      95.286052      84.485557      299.9807      -595.12006      53605.559      56548.323      28630.925      27917.398    
    319000   319000         0.20459417     0.18913254     345.59488      254.18898      91.405895      84.498147      300.41265      118.58396      57139.104      56552.727      28672.151      27880.576    
    320000   320000         0.20454297     0.15831062     358.40391      249.20195      109.20195      84.519298      299.65549     -493.64823      54105.427      56546.431      28599.886      27946.545    
    321000   321000         0.20449808     0.20031071     346.92426      260.6192       86.305066      84.537851      299.93372      162.05532      57351.223      56549.888      28626.442      27923.447    
    322000   322000         0.20443725     0.16826289     356.25684      253.51387      102.74296      84.563008      299.97298      182.60982      57450.191      56547.217      28630.188      27917.029    
    323000   323000         0.20445349     0.21474592     339.58334      259.0797       80.503642      84.556291      301.39762     -36.436712      56363.619      56543.792      28766.159      27777.633    
    324000   324000         0.20445946     0.1959661      339.01579      250.79732      88.218466      84.55382       300.83161     -622.99701      53468.102      56548.713      28712.138      27836.574    
    325000   325000         0.20446998     0.21425605     335.36236      254.67465      80.687702      84.549471      300.17213     -33.000717      56382.124      56545.307      28649.195      27896.111    
    326000   326000         0.20448273     0.23345513     332.06534      258.0133       74.052039      84.544199      299.0785      -346.22493      54838.157      56550.178      28544.817      28005.361    
    327000   327000         0.20450218     0.18633912     339.83584      247.05967      92.776162      84.536158      299.03883      210.05906      57590.974      56552.269      28541.031      28011.238    
    328000   328000         0.2044822      0.19938119     338.92253      252.21511      86.707418      84.544418      300.25915     -44.335175      56328.396      56547.626      28657.501      27890.125    
    329000   329000         0.20441782     0.17432601     352.64758      253.47805      99.16953       84.571046      299.03737      2.6084689      56559.078      56546.18       28540.891      28005.288    
    330000   330000         0.20439005     0.17850647     363.90622      267.05915      96.847071      84.582535      298.72465      85.023818      56962.675      56542.247      28511.044      28031.203    
    331000   331000         0.20434802     0.1668479      354.45901      250.84471      103.6143       84.599933      301.37594     -102.47662      56036.188      56542.917      28764.091      27778.826    
    332000   332000         0.20430286     0.19113269     344.19534      253.74598      90.449357      84.618633      299.60986      354.0003       58303.606      56553.137      28595.531      27957.605    
    333000   333000         0.20425341     0.18145916     346.19227      250.92109      95.271184      84.639119      300.54766      62.332366      56851.136      56542.914      28685.037      27857.877    
    334000   334000         0.2041937      0.19711678     349.47858      261.7751       87.703483      84.663869      299.09582      214.79979      57612.944      56550.797      28546.47       28004.327    
    335000   335000         0.20415623     0.22267389     339.69662      262.05919      77.637431      84.679408      298.77282      57.028053      56829.339      56547.345      28515.642      28031.703    
    336000   336000         0.20410704     0.16801742     354.28982      251.39675      102.89308      84.699814      300.12904     -27.168559      56411.199      56545.543      28645.083      27900.46     
    337000   337000         0.20401889     0.18565191     341.83347      248.71388      93.119584      84.736411      298.63216      248.56231      57776.193      56547.096      28502.217      28044.879    
[...]
    931000   931000         0.18808639     0.18401775     349.50841      255.56189      93.946526      91.914299      300.07024     -376.51832      54685.071      56546.888      28639.471      27907.416    
    932000   932000         0.18807737     0.18745158     347.10388      254.87832      92.225567      91.918705      300.5744      -351.4939       54805.224      56543.3        28687.589      27855.71     
    933000   933000         0.18807236     0.18020692     353.80995      257.87674      95.933211      91.921156      300.67289     -52.751049      56286.79       56547.634      28696.99       27850.645    
    934000   934000         0.18805872     0.17918096     346.13068      249.64817      96.48251       91.927823      301.20351     -236.70699      55376.949      56547.423      28747.633      27799.79     
    935000   935000         0.18805754     0.17415533     346.68803      247.42131      99.26672       91.928401      300.77178     -294.60232      55088.833      56545.589      28706.428      27839.162    
    936000   936000         0.18805064     0.18535097     349.10464      255.83387      93.270774      91.931771      300.08753      423.89639      58637.693      56541.6        28641.121      27900.479    
    937000   937000         0.18804856     0.19987402     344.12678      257.63315      86.493625      91.932787      298.44241     -380.25979      54669.295      56549.613      28484.106      28065.507    
    938000   938000         0.18805096     0.22789232     337.44673      261.58709      75.859637      91.931618      301.76069      388.0132       58463.677      56545.02       28800.812      27744.208    
    939000   939000         0.18804332     0.17593026     351.8663       253.60106      98.265238      91.935353      301.23012     -150.23711      55799.775      56542.671      28750.173      27792.498    
    940000   940000         0.18802712     0.20880958     335.56758      252.77527      82.792317      91.943273      298.62559     -198.12736      55572.666      56552.371      28501.59       28050.781    
    941000   941000         0.18802771     0.24005286     329.17961      257.16285      72.016758      91.942982      299.56412     -101.02921      56052.646      56552.218      28591.166      27961.052    
    942000   942000         0.18802372     0.16313768     348.56536      242.59457      105.97079      91.944934      299.04585      102.46185      57059.291      56552.635      28541.701      28010.935    
    943000   943000         0.18800882     0.18960479     343.80432      252.62609      91.178226      91.95222       300.57414      397.14358      58506.804      56542.998      28687.564      27855.434    
    944000   944000         0.18799775     0.1768644      345.25016      247.50393      97.746231      91.957635      298.85977      590.01166      59462.66       56545.156      28523.941      28021.215    
    945000   945000         0.18798192     0.16935616     350.56562      248.48591      102.07972      91.96538       299.30509     -518.03969      53984.871      56546.486      28566.443      27980.043    
    946000   946000         0.18797262     0.21702484     338.88358      259.22528      79.658295      91.969928      300.98011      106.36283      57068.22       56542.274      28726.311      27815.963    
    947000   947000         0.18796803     0.19458059     339.7911       250.94448      88.846626      91.972173      299.67512     -153.97638      55790.854      56552.24       28601.759      27950.481    
    948000   948000         0.18797406     0.18069441     345.63429      249.9599       95.674395      91.969223      299.59596      102.59315      57055.86       56548.555      28594.204      27954.351    
    949000   949000         0.18796535     0.20282493     337.24435      252.00912      85.235227      91.973487      297.97251      1.6026125      56557.604      56549.679      28439.258      28110.421    
    950000   950000         0.18795448     0.1856444      342.56697      249.44362      93.123349      91.978807      300.12482      403.27373      58541.222      56547.104      28644.68       27902.424    
    951000   951000         0.1879493      0.15779159     356.25166      246.69051      109.56116      91.981341      299.66559     -213.68139      55491.219      56547.836      28600.85       27946.986    
    952000   952000         0.18794507     0.18588496     343.994        250.99116      93.002836      91.983412      298.58504      20.692262      56656.587      56554.268      28497.72       28056.548    
    953000   953000         0.18794232     0.17437043     346.93893      247.79466      99.144269      91.984756      300.14903     -480.99345      54172.963      56551.391      28646.991      27904.4      
    954000   954000         0.18792805     0.16297846     344.79379      238.71947      106.07432      91.991744      299.23474      81.273739      56952.734      56550.85       28559.728      27991.122    
    955000   955000         0.18791657     0.16387356     351.14101      245.64608      105.49493      91.997362      300.90672      103.19185      57057.44       56547.175      28719.307      27827.868    
    956000   956000         0.18790826     0.18289733     343.44625      248.92421      94.522042      92.001429      299.08804      203.43169      57551.858      56545.924      28545.727      28000.197    
    957000   957000         0.1879059      0.19570807     329.56772      241.23294      88.334776      92.002586      297.99581     -47.23258       56320.734      56554.291      28441.482      28112.809    
    958000   958000         0.18790015     0.17305698     344.92396      245.02722      99.896742      92.0054        299.69737      466.46944      58855.805      56549.196      28603.884      27945.312    
    959000   959000         0.18788683     0.17105794     347.53808      246.4739       101.06417      92.011925      299.774        450.70436      58775.027      56546.373      28611.197      27935.177    
    960000   960000         0.18787567     0.18679863     338.66174      246.1138       92.547939      92.017389      300.89641      369.24398      58371.283      56545.436      28718.322      27827.114    
    961000   961000         0.18786373     0.17093455     348.75602      247.6189       101.13712      92.023236      300.48328     -498.3596       54081.14       56545.441      28678.892      27866.549    
    962000   962000         0.187845       0.16920442     353.55997      251.38871      102.17126      92.032414      299.89527     -119.45368      55954.039      56544.717      28622.771      27921.945    
    963000   963000         0.18783055     0.19627499     336.15309      248.07347      88.079629      92.039493      299.81704     -365.59964      54740.192      56548.018      28615.305      27932.713    
    964000   964000         0.18782407     0.18520985     341.53126      248.18941      93.341845      92.042669      300.70105      54.129271      56810.113      56542.454      28699.677      27842.776    
    965000   965000         0.18782394     0.18643393     345.69094      252.96196      92.72898       92.042731      298.93357      378.27227      58417.159      56546.669      28530.984      28015.685    
    966000   966000         0.18781864     0.16704714     345.78333      242.29261      103.49072      92.045331      299.49042     -160.6347       55753.564      56547.875      28584.131      27963.743    
    967000   967000         0.18781445     0.20600344     336.69219      252.7721       83.920095      92.047384      299.76669     -333.71251      54899.408      56549.558      28610.5        27939.058    
    968000   968000         0.18781986     0.21466838     334.43257      253.89985      80.53272       92.044731      300.62807     -386.86001      54634.351      56547.305      28692.712      27854.593    
    969000   969000         0.1878266      0.18099258     346.66566      251.14888      95.516781      92.041431      301.25713      148.31712      57278.515      56545.113      28752.751      27792.362    
    970000   970000         0.18782304     0.18086215     349.51758      253.93191      95.585664      92.043172      301.30262      144.85784      57260.26       56543.963      28757.093      27786.87     
    971000   971000         0.18782981     0.17270913     337.74338      237.64544      100.09794      92.039855      298.35492     -304.11673      55049.795      56553.599      28475.756      28077.843    
    972000   972000         0.18782811     0.14930167     364.51542      248.72416      115.79126      92.040689      299.56176      203.34897      57553.187      56547.662      28590.941      27956.721    
    973000   973000         0.18781173     0.18272959     348.76114      254.15233      94.608809      92.048716      299.54502     -102.94054      56043.278      56552.301      28589.342      27962.959    
    974000   974000         0.18781315     0.18255521     345.93108      251.2319       94.69918       92.04802       300.57565      105.40045      57065.24       56544.054      28687.708      27856.345    
    975000   975000         0.18780737     0.15661343     344.08885      233.7035       110.38535      92.050853      300.24011      75.182569      56917.517      56545.752      28655.684      27890.068    
    976000   976000         0.18778577     0.16177897     355.28984      248.42905      106.86079      92.061439      301.6854      -94.762316      56077.873      56546.456      28793.626      27752.83     
    977000   977000         0.18776262     0.16248313     345.81581      239.41812      106.39769      92.072793      300.39236     -64.086618      56228.264      56545.161      28670.215      27874.946    
    978000   978000         0.18774789     0.15717633     355.33443      245.3444       109.99003      92.080015      300.17168      11.125449      56597.773      56542.76       28649.153      27893.607    
    979000   979000         0.18772631     0.18676664     345.27079      252.707        92.563793      92.090602      299.05593      106.42085      57080.514      56554.281      28542.662      28011.619    
    980000   980000         0.18771985     0.17146644     348.49645      247.67306      100.8234       92.093768      300.41918     -186.00318      55626.323      56546.076      28672.775      27873.301    
    981000   981000         0.18771007     0.18469668     344.2139       250.61271      93.601189      92.098566      299.89468     -84.692589      56131.12       56549.91       28622.715      27927.195    
    982000   982000         0.18770701     0.16855954     347.6866       245.12446      102.56215      92.100067      299.6104      -446.22382      54336.85       56543.349      28595.582      27947.766    
    983000   983000         0.18770482     0.17316009     352.03505      252.19779      99.837258      92.101144      299.58013      116.9153       57122.132      56544.007      28592.694      27951.313    
    984000   984000         0.18769268     0.16713        356.96476      253.52535      103.43941      92.107101      301.8839       241.77383      57740.925      56545.396      28812.571      27732.825    
    985000   985000         0.1876833      0.19413958     345.93246      256.88401      89.04845       92.111706      298.42462      150.72425      57293.339      56548.034      28482.409      28065.625    
    986000   986000         0.18767267     0.1751298      354.88447      256.17009      98.714373      92.116921      301.13521      379.6546       58422.801      56545.475      28741.114      27804.361    
    987000   987000         0.18766299     0.17211444     347.05542      246.61162      100.4438       92.121673      300.26482      143.05939      57246.124      56538.72       28658.043      27880.677    
    988000   988000         0.18764334     0.16954066     355.80619      253.83757      101.96863      92.131322      300.41376     -216.35031      55480.446      56550.26       28672.257      27878.003    
    989000   989000         0.1876231      0.18388835     350.43445      256.42181      94.012638      92.141258      299.57816      109.21333      57091.378      56551.338      28592.505      27958.832    
    990000   990000         0.18759596     0.16633703     363.55597      259.62343      103.93253      92.15459       300.85775     -540.81811      53866.321      56540.571      28714.633      27825.938    
    991000   991000         0.18757677     0.19196695     347.33504      257.27877      90.056277      92.164016      298.69303      269.80504      57886.611      56552.472      28508.026      28044.446    
    992000   992000         0.18756135     0.18417863     347.02395      253.15949      93.864463      92.171593      299.0535      -219.80918      55463.212      56550.13       28542.431      28007.699    
    993000   993000         0.18754864     0.1807302      350.2684       254.61295      95.655448      92.177841      297.86274      292.88748      57992.83       56544.553      28428.782      28115.771    
    994000   994000         0.18754202     0.17271916     354.3693       254.27718      100.09213      92.181096      299.85411     -133.93159      55883.727      56545.995      28618.843      27927.151    
    995000   995000         0.18753233     0.17401757     345.34421      245.99891      99.345307      92.185856      298.23575     -233.21763      55398.418      56551.638      28464.383      28087.255    
    996000   996000         0.18752682     0.19501536     342.75052      254.10197      88.64855       92.188565      300.29454      131.81584      57200.445      56548.639      28660.879      27887.76     
    997000   997000         0.1875326      0.16879835     355.13881      252.72176      102.41705      92.185723      299.61632     -240.89097      55353.378      56544.541      28596.148      27948.393    
    998000   998000         0.18753542     0.18481319     348.00796      254.46578      93.542182      92.184338      300.69091     -683.69393      53174.324      56555.071      28698.709      27856.361    
    999000   999000         0.18752317     0.17938451     345.9135       249.54047      96.37303       92.19036       299.04446      333.02485      58193.852      56547.102      28541.568      28005.534    
   1000000   1000000        0.18751096     0.17897902     346.17174      249.58037      96.59137       92.196365      299.89307      359.88556      58326.768      56547.198      28622.561      27924.636    
   1001000   1001000        0.18750943     0.20036133     347.40732      261.12406      86.28326       92.197117      300.26466      271.38976      57888.034      56546.059      28658.027      27888.032    
   1002000   1002000        0.18751048     0.17605917     349.22536      251.03207      98.193287      92.196598      299.44392     -574.33383      53708.663      56548.643      28579.693      27968.95     
   1003000   1003000        0.18750314     0.15673356     359.97843      249.67768      110.30075      92.200206      300.08983      106.0691       57073.973      56549.48       28641.341      27908.139    
   1004000   1004000        0.1875031      0.1758074      350.19488      251.86098      98.333906      92.200226      299.87732      61.206859      56853.357      56550.7        28621.059      27929.641    
   1005000   1005000        0.18749198     0.19897933     347.22544      260.3429       86.882535      92.205697      300.0026      -347.43937      54829.757      56547.784      28633.015      27914.769    
   1006000   1006000        0.18748181     0.17611        345.24418      247.07924      98.164949      92.210698      299.31785      74.534296      56919.979      56551.42       28567.661      27983.759    
   1007000   1007000        0.18748046     0.16470055     363.87886      258.91364      104.96521      92.211363      299.73025     -38.506047      56362.27       56552.675      28607.022      27945.654    
   1008000   1008000        0.18747631     0.16635544     348.7472       244.82617      103.92103      92.213403      298.09239      436.86895      58718.938      56558.698      28450.7        28107.998    
   1009000   1009000        0.18746791     0.18046229     359.14011      263.34265      95.79746       92.217536      300.79428      52.619488      56805.728      56545.534      28708.575      27836.959    
   1010000   1010000        0.18746679     0.19163967     345.50484      255.29477      90.210074      92.218088      298.53992      288.18883      57976.437      56551.394      28493.413      28057.981    
   1011000   1011000        0.18745923     0.19510749     341.2424       252.63571      88.606691      92.221807      298.89149     -88.800503      56103.019      56542.121      28526.968      28015.153    
   1012000   1012000        0.18745869     0.20333859     341.05454      256.03463      85.01991       92.222069      297.98501      713.99073      60079.963      56549.404      28440.451      28108.953    
   1013000   1013000        0.18745698     0.16609097     353.22625      249.13975      104.0865       92.222911      297.6167       688.34324      59958.539      56554.803      28405.299      28149.504    
   1014000   1014000        0.18745127     0.17544078     348.483        249.9436       98.539399      92.225723      299.36492     -53.191491      56292.064      56555.087      28572.153      27982.933    
   1015000   1015000        0.1874473      0.18361274     342.40656      248.25281      94.153756      92.227673      299.56016     -232.01514      55399.607      56546.881      28590.787      27956.094    
   1016000   1016000        0.18744177     0.16942006     349.29274      247.25152      102.04122      92.230397      300.65321     -526.42899      53940.91       56544.009      28695.111      27848.898    
   1017000   1017000        0.18744096     0.1732038      349.48637      249.67431      99.812064      92.230795      298.87883      509.0378       59063.61       56546.508      28525.76       28020.748    
   1018000   1018000        0.18743253     0.20926837     336.69022      254.07941      82.610807      92.234941      300.64553     -224.88066      55430.007      56542.002      28694.378      27847.625    
   1019000   1019000        0.18743223     0.16781381     346.81545      243.79754      103.01791      92.235092      300.89749      391.14668      58477.337      56543.186      28718.426      27824.76     
   1020000   1020000        0.187424       0.17354485     345.5582       245.94229      99.615915      92.239141      302.65684     -8.5074751      56501.407      56543.475      28886.343      27657.132    
Loop time of 10673.6 on 32 procs for 1000000 steps with 32020 atoms

Performance: 8.095 ns/day, 2.965 hours/ns, 93.689 timesteps/s, 3.000 Matom-step/s
99.5% CPU use with 32 MPI tasks x 1 OpenMP threads

MPI task timing breakdown:
Section |  min time  |  avg time  |  max time  |%varavg| %total
---------------------------------------------------------------
Pair    | 6727.3     | 7515.2     | 8394.8     | 407.4 | 70.41
Bond    | 189.42     | 205.14     | 233.22     |  67.2 |  1.92
Kspace  | 1048.1     | 1924.2     | 2714.8     | 803.3 | 18.03
Neigh   | 347.06     | 357.75     | 360.83     |  17.6 |  3.35
Comm    | 354.98     | 487.19     | 666.34     | 324.9 |  4.56
Output  | 0.086185   | 0.099693   | 0.24904    |   8.7 |  0.00
Modify  | 79.867     | 160.43     | 252.43     | 419.2 |  1.50
Other   |            | 23.66      |            |       |  0.22

Nlocal:        1000.62 ave        1041 max         931 min
Histogram: 1 2 0 1 4 4 8 4 2 6
Nghost:        11112.1 ave       11210 max       10993 min
Histogram: 1 2 1 8 3 4 5 2 1 5
Neighs:         542906 ave      589633 max      477501 min
Histogram: 1 1 1 2 5 7 5 5 2 3

Total # of neighbors = 17372994
Ave neighs/atom = 542.56696
Ave special neighs/atom = 11.48782
Neighbor list builds = 28862
Dangerous builds = 0
Total wall time: 3:01:21
