units real
atom_style full
boundary p p p

# styles
pair_style lj/charmm/coul/long 8.0 12.0
kspace_style pppm 1e-6
dielectric 1.000000
bond_style harmonic
angle_style harmonic
dihedral_style fourier
improper_style cvff
special_bonds amber
pair_modify mix arithmetic
neighbor 2.0 bin
neigh_modify delay 0 every 1 check yes

# system definition
read_data ../final.data
Reading data file ...
  orthogonal box = (-41.07686 -32.676339 -31.575799) to (41.07686 32.676339 31.575799)
  4 by 4 by 2 MPI processor grid
  reading atoms ...
  32020 atoms
  reading velocities ...
  32020 velocities
  scanning bonds ...
  3 = max bonds/atom
  scanning angles ...
  6 = max angles/atom
  scanning dihedrals ...
  15 = max dihedrals/atom
  scanning impropers ...
  1 = max impropers/atom
  reading bonds ...
  34010 bonds
  reading angles ...
  60000 angles
  reading dihedrals ...
  95910 dihedrals
  reading impropers ...
  10000 impropers
Finding 1-2 1-3 1-4 neighbors ...
  special bond factors lj:    0        0        0.5     
  special bond factors coul:  0        0        0.8333333333333334
     4 = max # of 1-2 neighbors
     8 = max # of 1-3 neighbors
    18 = max # of 1-4 neighbors
    22 = max # of special neighbors
  special bonds CPU = 0.081 seconds
  read_data CPU = 0.582 seconds
# do not reset velocities

# vars
variable tLog equal 1000
variable nEvery equal 10
variable nRepeat equal 100
variable boolDump equal 0
variable tDump equal 1000

variable tPreeq equal 10000
variable tPrerun equal 10000
variable tTCrun equal 1000000

variable diffT_delay equal ${tPreeq}+${tPreeq}
variable diffT_delay equal 10000+${tPreeq}
variable diffT_delay equal 10000+10000
# heatflux of 0.05 give good results over 1 ns
variable heat_flux equal 0.05
variable heat_flux_neg equal -1*v_heat_flux

# defining region
variable hot_lo equal (ly*0)+ylo
variable hot_hi equal (ly*0.05)+ylo
variable cold_lo equal (ly*0.50)+ylo
variable cold_hi equal (ly*0.55)+ylo

print "DEBUG: ${hot_lo} ${hot_hi} ${cold_lo} ${cold_hi}"
DEBUG: -32.6763385301816 -29.4087046771634 0 3.26763385301816

# define heating and cooling block regions
region hot block INF INF ${hot_lo} ${hot_hi} INF INF units box
region hot block INF INF -32.6763385301816 ${hot_hi} INF INF units box
region hot block INF INF -32.6763385301816 -29.4087046771634 INF INF units box
region cold block INF INF ${cold_lo} ${cold_hi} INF INF units box
region cold block INF INF 0 ${cold_hi} INF INF units box
region cold block INF INF 0 3.26763385301816 INF INF units box
compute Thot all temp/region hot
compute Tcold all temp/region cold

# STEP 1 - 1st equilibration (nve)
# 1a - thermo output for md2
thermo_style custom step time temp c_Thot c_Tcold press enthalpy etotal ke pe
thermo_modify colname c_Thot Temp_hot colname c_Tcold Temp_cold
thermo_modify flush yes
thermo ${tLog}
thermo 1000

# 1b - nve equilibration
timestep 1.0
fix md2 all nve
run ${tPreeq}
run 10000
PPPM initialization ...
  using 12-bit tables for long-range coulomb (src/kspace.cpp:342)
  G vector (1/distance) = 0.23713698
  grid = 45 36 36
  stencil order = 5
  estimated absolute RMS force accuracy = 0.00028675184
  estimated relative force accuracy = 8.6354464e-07
  using double precision FFTW3
  3d grid and FFT values/proc = 7200 3240
Generated 10 of 10 mixed pair_coeff terms from arithmetic mixing rule
Neighbor list info ...
  update: every = 1 steps, delay = 0 steps, check = yes
  max neighbors/atom: 2000, page size: 100000
  master list distance cutoff = 14
  ghost atom cutoff = 14
  binsize = 7, bins = 12 10 10
  1 neighbor lists, perpetual/occasional/extra = 1 0 0
  (1) pair lj/charmm/coul/long, perpetual
      attributes: half, newton on
      pair build: half/bin/newton
      stencil: half/bin/3d
      bin: standard
Per MPI rank memory allocation (min/avg/max) = 17.69 | 17.74 | 18.22 Mbytes
   Step          Time           Temp         Temp_hot      Temp_cold        Press         Enthalpy        TotEng         KinEng         PotEng    
         0   0              299.02528      296.86558      305.10596     -153.33602      55796.692      56554.912      28539.738      28015.174    
      1000   1000           299.34921      302.01065      305.61081     -533.94942      53910.169      56550.455      28570.654      27979.802    
      2000   2000           300.69825      293.87843      310.67669      293.70498      57997.453      56545.133      28699.41       27845.723    
      3000   3000           300.66594      297.63826      302.62638      304.79857      58051.772      56544.597      28696.326      27848.271    
      4000   4000           302.24223      299.42648      308.68461      50.633677      56790.187      56539.813      28846.771      27693.042    
      5000   5000           298.64446      303.38966      292.84187     -593.91796      53609.237      56546.057      28503.391      28042.667    
      6000   6000           300.70099      307.36155      289.77234     -2.0153206      56533.387      56543.353      28699.671      27843.681    
      7000   7000           299.95165      315.96929      313.25635     -241.02072      55351.872      56543.678      28628.153      27915.525    
      8000   8000           299.2205       303.57847      301.52346     -29.12992       56404.068      56548.111      28558.369      27989.741    
      9000   9000           298.40771      306.163        308.05796     -542.18678      53869.292      56550.31       28480.795      28069.516    
     10000   10000          298.80037      299.14882      296.23438      74.129188      56914.001      56547.445      28518.272      28029.174    
Loop time of 104.772 on 32 procs for 10000 steps with 32020 atoms

Performance: 8.246 ns/day, 2.910 hours/ns, 95.445 timesteps/s, 3.056 Matom-step/s
99.5% CPU use with 32 MPI tasks x 1 OpenMP threads

MPI task timing breakdown:
Section |  min time  |  avg time  |  max time  |%varavg| %total
---------------------------------------------------------------
Pair    | 68.851     | 75.496     | 83.725     |  39.4 | 72.06
Bond    | 1.8713     | 2.0366     | 2.1827     |   5.9 |  1.94
Kspace  | 9.8711     | 18.167     | 24.863     |  80.7 | 17.34
Neigh   | 3.3345     | 3.4109     | 3.4328     |   1.4 |  3.26
Comm    | 3.5119     | 4.5746     | 5.9256     |  26.0 |  4.37
Output  | 0.0008322  | 0.0013972  | 0.0033843  |   1.3 |  0.00
Modify  | 0.05126    | 0.055676   | 0.062049   |   1.2 |  0.05
Other   |            | 1.03       |            |       |  0.98

Nlocal:        1000.62 ave        1047 max         950 min
Histogram: 2 2 3 1 5 8 4 2 4 1
Nghost:        11111.1 ave       11244 max       10988 min
Histogram: 4 3 2 4 2 7 3 2 4 1
Neighs:         542914 ave      601481 max      494271 min
Histogram: 2 2 3 6 4 8 4 1 1 1

Total # of neighbors = 17373263
Ave neighs/atom = 542.57536
Ave special neighs/atom = 11.48782
Neighbor list builds = 275
Dangerous builds = 0
unfix md2

# STEP 2 - MD for thermal conductivity
# 2a - impose nve
fix md3 all nve

# 2b - impose heat flux
fix hot all ehex 1 ${heat_flux} region hot
fix hot all ehex 1 0.05 region hot
fix cold all ehex 1 ${heat_flux_neg} region cold
fix cold all ehex 1 -0.05 region cold

# 2c - calculate thermal profile
compute ke all ke/atom
variable temp atom c_ke/(1.5*0.001987204)

compute layers all chunk/atom bin/1d y lower 0.05 units reduced
fix bins all ave/chunk ${nEvery} ${nRepeat} ${tLog} layers v_temp file Tprofile_y_ehex.dat
fix bins all ave/chunk 10 ${nRepeat} ${tLog} layers v_temp file Tprofile_y_ehex.dat
fix bins all ave/chunk 10 100 ${tLog} layers v_temp file Tprofile_y_ehex.dat
fix bins all ave/chunk 10 100 1000 layers v_temp file Tprofile_y_ehex.dat

variable tdiff equal c_Thot-c_Tcold
fix ave all ave/time ${nEvery} ${nRepeat} ${tLog} v_tdiff ave running start ${diffT_delay}
fix ave all ave/time 10 ${nRepeat} ${tLog} v_tdiff ave running start ${diffT_delay}
fix ave all ave/time 10 100 ${tLog} v_tdiff ave running start ${diffT_delay}
fix ave all ave/time 10 100 1000 v_tdiff ave running start ${diffT_delay}
fix ave all ave/time 10 100 1000 v_tdiff ave running start 20000

# pre define kappa
variable kappa_inst equal 0
variable kappa equal 0

# 2d - thermo out
# dump dump_tc all custom 1000 dump.tc_x_ehex.lammpstrj id type mol x y z ix iy iz vx vy vz
thermo_style custom step time v_kappa v_kappa_inst c_Thot c_Tcold v_tdiff f_ave temp press enthalpy etotal ke pe
WARNING: New thermo_style command, previous thermo_modify settings will be lost (src/output.cpp:904)
thermo_modify colname v_kappa kappa colname v_kappa_inst kappa_inst colname c_Thot Temp_hot colname c_Tcold Temp_cold colname v_tdiff dTemp_step colname f_ave dTemp
thermo_modify flush yes
thermo ${tLog}
thermo 1000

# 2e - prerun
run ${tPrerun}
run 10000
PPPM initialization ...
  using 12-bit tables for long-range coulomb (src/kspace.cpp:342)
  G vector (1/distance) = 0.23713698
  grid = 45 36 36
  stencil order = 5
  estimated absolute RMS force accuracy = 0.00028675184
  estimated relative force accuracy = 8.6354464e-07
  using double precision FFTW3
  3d grid and FFT values/proc = 7200 3240
Generated 10 of 10 mixed pair_coeff terms from arithmetic mixing rule
Per MPI rank memory allocation (min/avg/max) = 18.19 | 18.28 | 18.73 Mbytes
   Step          Time          kappa        kappa_inst      Temp_hot      Temp_cold      dTemp_step       dTemp           Temp          Press         Enthalpy        TotEng         KinEng         PotEng    
     10000   10000          0              0              299.59519      296.23438      3.3608119      0              298.80037      74.129188      56914.001      56547.445      28518.272      28029.174    
     11000   11000          0              0              305.47741      308.02399     -2.5465721      0              301.0955      -38.401689      56356.251      56546.141      28737.324      27808.817    
     12000   12000          0              0              308.18264      293.44208      14.740561      0              298.50836      300.02748      58030.778      56547.194      28490.401      28056.793    
     13000   13000          0              0              294.105        287.57746      6.527538       0              299.53673      28.900949      56684.129      56541.219      28588.551      27952.668    
     14000   14000          0              0              302.84643      291.97441      10.872021      0              299.67758      35.425636      56721.5        56546.326      28601.995      27944.331    
     15000   15000          0              0              306.88429      298.87069      8.0136003      0              300.044       -217.24593      55474.345      56548.588      28636.967      27911.621    
     16000   16000          0              0              301.62339      283.52849      18.094899      0              300.90066     -107.91152      56010.325      56543.929      28718.729      27825.2      
     17000   17000          0              0              320.634        301.57785      19.056152      0              299.64835      29.433891      56700.894      56555.349      28599.205      27956.144    
     18000   18000          0              0              315.64027      289.04634      26.59393       0              301.00284      48.055024      56779.892      56542.268      28728.48       27813.788    
     19000   19000          0              0              317.17275      290.26053      26.912218      0              299.51779     -512.79877      54015.531      56551.23       28586.744      27964.487    
     20000   20000          0              0              313.8719       282.39561      31.476298      28.600303      299.99083      469.62914      58874.423      56552.189      28631.892      27920.297    
Loop time of 106.169 on 32 procs for 10000 steps with 32020 atoms

Performance: 8.138 ns/day, 2.949 hours/ns, 94.189 timesteps/s, 3.016 Matom-step/s
99.5% CPU use with 32 MPI tasks x 1 OpenMP threads

MPI task timing breakdown:
Section |  min time  |  avg time  |  max time  |%varavg| %total
---------------------------------------------------------------
Pair    | 67.497     | 75.078     | 83.892     |  39.2 | 70.72
Bond    | 1.8698     | 2.0391     | 2.1835     |   5.8 |  1.92
Kspace  | 10.364     | 19.236     | 26.877     |  77.2 | 18.12
Neigh   | 3.3103     | 3.3813     | 3.4196     |   1.5 |  3.18
Comm    | 3.8265     | 4.7816     | 5.9967     |  21.9 |  4.50
Output  | 0.0017097  | 0.0018293  | 0.0024624  |   0.3 |  0.00
Modify  | 0.86301    | 1.4088     | 2.0141     |  27.1 |  1.33
Other   |            | 0.2425     |            |       |  0.23

Nlocal:        1000.62 ave        1053 max         926 min
Histogram: 1 1 2 1 5 4 9 3 4 2
Nghost:        11098.6 ave       11229 max       10959 min
Histogram: 2 2 1 4 4 9 3 3 2 2
Neighs:         542913 ave      599306 max      471759 min
Histogram: 1 1 1 3 4 9 8 1 3 1

Total # of neighbors = 17373230
Ave neighs/atom = 542.57433
Ave special neighs/atom = 11.48782
Neighbor list builds = 271
Dangerous builds = 0

# 2f - calc kappa
variable kappa_inst equal (${heat_flux}/(lx*lz)/2.0)*(ly/2.0)/v_tdiff*69478.5785
variable kappa_inst equal (0.05/(lx*lz)/2.0)*(ly/2.0)/v_tdiff*69478.5785
variable kappa equal (${heat_flux}/(lx*lz)/2.0)*(ly/2.0)/f_ave*69478.5785
variable kappa equal (0.05/(lx*lz)/2.0)*(ly/2.0)/f_ave*69478.5785

# 2g - md run for kappa calculation
# optional traj dump
if "${boolDump} == 1" then     "dump tc_dump all atom ${tDump} dump.tc_y.lammpstrj"
run ${tTCrun}
run 1000000
PPPM initialization ...
  using 12-bit tables for long-range coulomb (src/kspace.cpp:342)
  G vector (1/distance) = 0.23713698
  grid = 45 36 36
  stencil order = 5
  estimated absolute RMS force accuracy = 0.00028675184
  estimated relative force accuracy = 8.6354464e-07
  using double precision FFTW3
  3d grid and FFT values/proc = 7200 3240
Generated 10 of 10 mixed pair_coeff terms from arithmetic mixing rule
Per MPI rank memory allocation (min/avg/max) = 18.44 | 18.53 | 18.98 Mbytes
   Step          Time          kappa        kappa_inst      Temp_hot      Temp_cold      dTemp_step       dTemp           Temp          Press         Enthalpy        TotEng         KinEng         PotEng    
     20000   20000          0.38250939     0.34507854     314.0982       282.39561      31.702593      28.600303      299.99083      469.62916      58874.423      56552.189      28631.892      27920.297    
     21000   21000          0.36992512     0.2835652      323.05596      284.47618      38.579786      29.57324       301.55675      11.969005      56596.132      56536.948      28781.347      27755.601    
     22000   22000          0.35197395     0.42002021     313.41194      287.36585      26.046091      31.081518      297.88147      875.25652      60873.88       56545.89       28430.569      28115.321    
     23000   23000          0.34183476     0.29027057     316.65335      278.96478      37.688576      32.003429      298.81737      593.50462      59490.364      56555.588      28519.894      28035.694    
     24000   24000          0.3311962      0.31889148     321.7528       287.44682      34.30598       33.031431      300.32156      122.89475      57149.075      56541.382      28663.458      27877.925    
     25000   25000          0.32368454     0.22687524     323.70437      275.48454      48.219826      33.797983      300.29784      449.89448      58773.453      56548.804      28661.194      27887.61     
     26000   26000          0.3216746      0.3208885      313.91863      279.82615      34.092479      34.009165      300.77214      19.241798      56643          56547.853      28706.462      27841.39     
     27000   27000          0.320965       0.65071576     303.39808      286.586        16.812079      34.084353      299.44783      54.386455      56815.361      56546.43       28580.067      27966.363    
     28000   28000          0.32425147     0.48302048     308.11158      285.46267      22.648904      33.73889       299.43441      171.23951      57398.092      56551.343      28578.786      27972.557    
     29000   29000          0.32382134     0.25744496     328.55182      286.05775      42.494071      33.783704      301.44653     -99.004423      56057.117      56546.676      28770.827      27775.849    
     30000   30000          0.32072425     0.27581104     315.22496      275.56054      39.664419      34.109938      300.68321     -558.56096      53782.559      56544.545      28697.974      27846.57     
     31000   31000          0.31954146     0.2866434      308.61384      270.44835      38.165485      34.236197      299.43505      236.19439      57709.573      56541.633      28578.847      27962.786    
     32000   32000          0.31685432     0.2727109      313.9709       273.85558      40.115318      34.526543      300.4464       150.90805      57286.45       56540.236      28675.373      27864.863    
     33000   33000          0.3110479      0.2375153      323.69539      277.63568      46.059705      35.171061      299.32667     -215.87108      55479.549      56546.994      28568.503      27978.491    
     34000   34000          0.3072803      0.23425224     323.88706      277.18576      46.701303      35.602297      299.16214     -452.64848      54318.561      56556.828      28552.799      28004.028    
     35000   35000          0.3053833      0.41990954     314.33976      288.28681      26.052955      35.823454      298.85466      335.69988      58213.096      56553.12       28523.453      28029.666    
     36000   36000          0.30235876     0.26144508     319.13224      277.28833      41.843911      36.181801      297.66211     -276.74589      55183.02       56551.48       28409.633      28141.847    
     37000   37000          0.29932565     0.27398925     328.72379      288.79564      39.928153      36.548437      302.92195      388.71488      58462.768      56540.641      28911.646      27628.995    
     38000   38000          0.29712988     0.28135604     320.86296      281.98026      38.882707      36.818527      298.90326      135.6942       57221.551      56550.567      28528.091      28022.476    
     39000   39000          0.294686       0.21385855     319.44154      268.28677      51.154768      37.123869      298.73538      424.17732      58652.303      56554.821      28512.069      28042.752    
     40000   40000          0.29164709     0.23959684     318.93894      273.27939      45.659552      37.510693      299.47738     -24.511436      56426.255      56547.46       28582.887      27964.573    
     41000   41000          0.28846618     0.26481006     315.87977      274.56758      41.312194      37.924322      300.02383      526.5029       59150.977      56547.512      28635.041      27912.471    
     42000   42000          0.28535834     0.3050465      318.10947      282.24646      35.863006      38.337357      300.63266      95.033721      57016.086      56546.161      28693.15       27853.011    
     43000   43000          0.28378421     0.23426552     321.87106      275.1724       46.698654      38.550011      299.43689     -244.34312      55340.768      56549.002      28579.022      27969.98     
     44000   44000          0.28012102     0.19610535     326.7222       270.93644      55.785752      39.054136      299.86244     -175.84272      55678.538      56548.049      28619.638      27928.411    
     45000   45000          0.2780689      0.25738739     323.66852      281.16495      42.503577      39.342352      298.84654      408.08705      58569.632      56551.713      28522.678      28029.036    
     46000   46000          0.2771766      0.26431752     320.60181      279.21264      41.389176      39.469005      298.94674     -516.22518      53989.838      56542.481      28532.242      28010.239    
     47000   47000          0.27434476     0.19628524     326.51548      270.78086      55.734627      39.876411      300.85639      492.35005      58979.229      56544.645      28714.503      27830.142    
     48000   48000          0.27227796     0.26291845     323.1266       281.51718      41.609421      40.179103      298.21393      89.653889      56990.788      56547.465      28462.3        28085.166    
     49000   49000          0.26986102     0.20574466     331.75212      278.57998      53.172144      40.538958      300.25119      56.259214      56819.169      56540.977      28656.741      27884.236    
     50000   50000          0.26785787     0.1537936      332.35834      261.22479      71.133548      40.842124      298.6262       114.02544      57108.278      56544.442      28501.648      28042.794    
     51000   51000          0.26474448     0.23721982     321.06551      274.94844      46.117077      41.322428      299.18757      53.869084      56819.745      56553.372      28555.227      27998.145    
     52000   52000          0.26227918     0.197057       327.85982      272.34347      55.516345      41.710838      298.7673      -91.297188      56094.271      56545.72       28515.115      28030.605    
     53000   53000          0.26106126     0.24455667     327.28375      282.55021      44.733536      41.905431      300.00976     -167.49752      55715.108      56543.354      28633.699      27909.655    
     54000   54000          0.25919584     0.18087234     332.4619       271.97789      60.484009      42.207022      299.83341     -251.16736      55304.64       56546.619      28616.867      27929.751    
     55000   55000          0.25727577     0.18486837     331.91206      272.73544      59.176617      42.522016      299.33895      38.224543      56732.58       56543.566      28569.675      27973.891    
     56000   56000          0.25582258     0.20647319     323.76783      270.7833       52.984528      42.763562      301.76362      735.01426      60175.658      56541.142      28801.092      27740.05     
     57000   57000          0.25535131     0.24606889     318.43529      273.97666      44.458625      42.842484      300.01622      451.43589      58778.758      56546.487      28634.315      27912.171    
     58000   58000          0.2541547      0.23469324     314.45176      267.83821      46.613547      43.044195      301.06188     -137.91205      55864.914      56546.865      28734.116      27812.749    
     59000   59000          0.25328776     0.26149108     319.95332      278.11677      41.836549      43.191525      298.89794     -393.49434      54600.563      56546.323      28527.584      28018.739    
     60000   60000          0.25268517     0.2181541      320.19544      270.04793      50.147508      43.294526      299.52726      125.98088      57173.649      56550.696      28587.647      27963.048    
     61000   61000          0.25146545     0.22668989     320.14575      271.8865       48.259252      43.504523      298.35914     -483.66843      54157.83       56549.485      28476.16       28073.326    
     62000   62000          0.25001638     0.17307764     323.49949      260.29154      63.207959      43.756671      299.00204     -390.17792      54620.798      56550.159      28537.519      28012.64     
     63000   63000          0.24920942     0.23813912     324.31529      278.37624      45.939047      43.89836       300.48798     -32.035042      56392.428      56550.836      28679.341      27871.495    
     64000   64000          0.24805443     0.26146802     317.69666      275.85642      41.84024       44.102759      298.73474     -155.8965       55778.76       56549.641      28512.008      28037.633    
     65000   65000          0.24725689     0.21819149     317.71318      267.57426      50.138915      44.245014      301.41166      92.9981        57003.35       56543.491      28767.5        27775.991    
     66000   66000          0.24678092     0.20601965     330.07404      276.97287      53.10117       44.33035       299.50121      644.90497      59733.865      56544.923      28585.162      27959.761    
     67000   67000          0.24636649     0.19866592     322.61999      267.55325      55.066741      44.40492       299.98096     -602.86409      53564.928      56545.985      28630.95       27915.034    
     68000   68000          0.24512225     0.22231686     319.93637      270.72784      49.208524      44.630321      299.08304     -307.14174      55024.507      56543.269      28545.25       27998.019    
     69000   69000          0.24407546     0.22979278     321.79357      274.18596      47.607607      44.821731      299.57582      290.137        57989.946      56555.27       28592.282      27962.988    
     70000   70000          0.24320841     0.20586454     326.72305      273.58188      53.141179      44.981522      300.81438      138.35666      57231.255      56547.105      28710.494      27836.612    
     71000   71000          0.24233313     0.18104473     329.09758      268.67116      60.426419      45.14399       298.77156     -17.9379        56457.061      56545.76       28515.521      28030.239    
     72000   72000          0.24135698     0.19156903     328.46302      271.35627      57.10675       45.326573      299.47056     -452.4831       54314.392      56551.841      28582.236      27969.605    
     73000   73000          0.24070406     0.23231831     322.45959      275.36953      47.090065      45.449522      300.15956     -189.26928      55612.836      56548.74       28647.996      27900.744    
     74000   74000          0.23974693     0.19672326     323.9154       268.30488      55.610529      45.630967      297.38389     -505.90706      54050.045      56551.666      28383.079      28168.587    
     75000   75000          0.23907442     0.2360634      321.52468      275.18168      46.342992      45.759326      299.95777      806.22234      60536.164      56549.537      28628.736      27920.8      
     76000   76000          0.23851107     0.22686691     326.80859      278.587        48.221597      45.867408      300.20109     -194.13401      55586.577      56546.536      28651.96       27894.576    
     77000   77000          0.23787994     0.17615835     332.10043      269.99787      62.102561      45.989101      298.5898       1001.7236      61500.712      56547.365      28498.174      28049.191    
     78000   78000          0.236632       0.16295398     331.55779      264.42298      67.134811      46.231637      299.21281      162.79624      57352.051      56547.052      28557.636      27989.416    
     79000   79000          0.23537926     0.20884885     328.81417      276.43235      52.381829      46.477692      300.84747      247.55107      57767.07       56542.974      28713.652      27829.322    
     80000   80000          0.23426248     0.19758594     324.43967      269.07194      55.367727      46.69926       299.63807     -130.05742      55902.819      56545.93       28598.224      27947.706    
     81000   81000          0.23319667     0.1643666      333.5788       267.02097      66.557832      46.912697      300.09868     -120.3227       55951.86       56546.834      28642.185      27904.649    
     82000   82000          0.23178756     0.17029398     330.70293      266.46176      64.24117       47.197892      296.50895     -147.88088      55821.762      56553.007      28299.572      28253.435    
     83000   83000          0.23048532     0.16019411     331.7982       263.50677      68.29143       47.464561      300.45984      102.2598       57053.897      56548.241      28676.655      27871.585    
     84000   84000          0.22904869     0.20725803     327.24528      274.4614       52.783886      47.762266      299.076        139.72857      57237.944      56547.011      28544.578      28002.433    
     85000   85000          0.22784842     0.14523856     338.43347      263.10992      75.323553      48.01387       299.40466     -166.20563      55732.046      56553.904      28575.946      27977.957    
     86000   86000          0.22673809     0.19326916     325.24311      268.63871      56.604399      48.248993      298.35267      12.765072      56614.144      56551.023      28475.542      28075.481    
     87000   87000          0.22594324     0.17373179     329.24123      266.27127      62.969962      48.418729      300.45368      417.81341      58611.143      56545.129      28676.068      27869.062    
     88000   88000          0.22493738     0.19009597     325.0461       267.49683      57.54927       48.635244      298.20632      311.66088      58089.332      56548.224      28461.574      28086.65     
     89000   89000          0.22405721     0.19808323     323.58385      268.35512      55.228727      48.826301      301.17725      36.609677      56727.114      56546.086      28745.127      27800.959    
     90000   90000          0.2231746      0.15415646     337.69571      266.7296       70.96611       49.019397      299.38689     -356.87189      54782.771      56547.439      28574.25       27973.189    
     91000   91000          0.22244964     0.18894507     319.90621      262.0064       57.899816      49.179152      298.90439     -314.37603      54994.116      56548.651      28528.199      28020.452    
     92000   92000          0.22151823     0.14984844     338.06689      265.06056      73.006331      49.385933      301.12581     -534.62364      53905.137      56548.757      28740.217      27808.54     
     93000   93000          0.22025701     0.15273925     341.27681      269.65223      71.624578      49.668722      298.86577      279.32855      57925.804      56544.574      28524.513      28020.06     
     94000   94000          0.21916188     0.17162502     336.80909      273.06614      63.742946      49.916913      299.32512     -131.25901      55899.337      56548.389      28568.355      27980.034    
     95000   95000          0.21835719     0.20208754     323.97726      269.84287      54.134385      50.100866      300.73179     -95.942909      56070.535      56544.956      28702.611      27842.345    
     96000   96000          0.2175004      0.20096358     324.31812      269.88097      54.43715       50.298227      299.67881      296.77125      58012.592      56545.11       28602.112      27942.998    
     97000   97000          0.21678623     0.17678428     337.49252      275.60985      61.882676      50.463927      299.91704     -473.5308       54206.052      56547.578      28624.849      27922.729    
     98000   98000          0.21579995     0.17070792     334.32609      270.2407       64.085394      50.694564      298.50741     -79.293747      56158.626      56550.72       28490.311      28060.409    
     99000   99000          0.21500046     0.1952949      336.34051      280.32326      56.017257      50.883074      301.50524      186.14254      57461.593      56541.151      28776.431      27764.72     
    100000   100000         0.21417977     0.16128749     338.77274      270.94426      67.828475      51.078047      301.8237      -51.417644      56292.883      56547.135      28806.825      27740.309    
    101000   101000         0.21345001     0.14963029     337.93215      264.81938      73.112767      51.252677      300.45914     -291.40513      55109.167      56550.114      28676.589      27873.525    
    102000   102000         0.21244971     0.15812578     332.69574      263.51104      69.184699      51.493995      299.4062      -137.33749      55866.232      56545.342      28576.094      27969.248    
    103000   103000         0.2115553      0.15779205     335.98044      266.64942      69.331026      51.711702      300.29533     -310.11454      55015.085      56548.547      28660.954      27887.592    
    104000   104000         0.21077975     0.15461441     337.92577      267.16985      70.755919      51.901972      298.88296      597.39959      59493.782      56539.746      28526.154      28013.592    
    105000   105000         0.21009369     0.17853396     333.78942      272.51322      61.276209      52.071456      299.81108      456.55343      58805.255      56547.679      28614.736      27932.943    
    106000   106000         0.20935034     0.14158849     347.13263      269.86727      77.265353      52.256348      300.43666      273.16885      57892.826      56542.054      28674.443      27867.612    
    107000   107000         0.20861058     0.15924706     332.80686      264.10931      68.697559      52.441657      298.15802     -792.03993      52629.368      56545.866      28456.963      28088.903    
    108000   108000         0.20793784     0.17492903     328.64595      266.10696      62.538987      52.611321      298.69686     -143.10996      55831.587      56539.24       28508.393      28030.848    
    109000   109000         0.20712252     0.16496551     334.33049      268.0143       66.316191      52.81842       299.85136     -409.05058      54517.848      56540.531      28618.581      27921.95     
    110000   110000         0.20651219     0.16062374     339.33532      271.22656      68.108767      52.974522      300.3748       17.364635      56626.37       56540.505      28668.539      27871.966    
    111000   111000         0.20595455     0.15759566     335.43494      266.01752      69.417422      53.117956      299.09607     -506.30048      54038.991      56542.558      28546.493      27996.065    
    112000   112000         0.20551468     0.17523989     330.83177      268.40372      62.428051      53.231645      300.13557     -426.76397      54431.035      56541.307      28645.707      27895.601    
    113000   113000         0.20508538     0.19298445     335.73816      279.05025      56.687907      53.343074      299.51717      273.63087      57902.885      56549.828      28586.685      27963.144    
    114000   114000         0.20461663     0.15620079     332.06054      262.02322      70.03732       53.465276      297.57922     -400.61521      54568.613      56549.584      28401.721      28147.863    
    115000   115000         0.20400406     0.13747289     340.08532      260.50684      79.578484      53.625818      300.35508     -725.7457       52954.756      56543.441      28666.657      27876.784    
    116000   116000         0.20339657     0.14255391     339.81112      263.06903      76.742085      53.785983      299.79247     -481.31735      54164.492      56544.521      28612.96       27931.561    
    117000   117000         0.20276881     0.13614039     347.76995      267.41257      80.357373      53.952501      300.13974      20.938734      56649.074      56545.536      28646.104      27899.431    
    118000   118000         0.20226799     0.19006174     334.00003      276.44039      57.559637      54.08609       297.16335     -325.35334      54939.444      56548.259      28362.03       28186.229    
    119000   119000         0.20182267     0.16671986     330.6775       265.05913      65.618366      54.20543       299.03433      25.032953      56678.11       56554.327      28540.601      28013.726    
    120000   120000         0.20131047     0.15581852     336.02527      265.81612      70.209144      54.343347      300.11109      39.164382      56746.056      56552.395      28643.37       27909.026    
    121000   121000         0.20098322     0.1836339      331.53977      271.96534      59.574427      54.43183       298.91299     -492.07068      54113.348      56546.551      28529.02       28017.531    
    122000   122000         0.20057942     0.20747942     319.26038      266.53282      52.727566      54.54141       298.8171      -816.29618      52511.678      56548.119      28519.868      28028.251    
    123000   123000         0.20025663     0.17367252     336.78644      273.79499      62.991455      54.629326      299.66065      636.46802      59694.879      56547.656      28600.378      27947.278    
    124000   124000         0.19995272     0.15944545     342.73667      274.12459      68.612085      54.712358      299.58228      178.70731      57433.512      56549.836      28592.899      27956.937    
    125000   125000         0.19963398     0.17078399     333.23784      269.18099      64.05685       54.799711      299.09164     -706.90366      53044.897      56540.411      28546.07       27994.34     
    126000   126000         0.19916554     0.16466036     335.50773      269.06863      66.439092      54.928602      299.56813      460.67912      58821.094      56543.117      28591.548      27951.569    
    127000   127000         0.19869676     0.15096115     332.69005      260.22184      72.46821       55.058192      299.98351      364.94293      58351.44       56546.861      28631.194      27915.668    
    128000   128000         0.19821045     0.18031453     334.55442      273.8833       60.671121      55.19328       301.15124     -95.889952      56071.108      56545.267      28742.645      27802.622    
    129000   129000         0.19779138     0.19307926     327.40121      270.74114      56.660072      55.310219      298.22805     -169.48164      55711.035      56549.092      28463.647      28085.445    
    130000   130000         0.19733856     0.17489325     333.8106       271.25882      62.551781      55.437135      299.07874      153.31135      57302.857      56544.76       28544.84       27999.92     
    131000   131000         0.19702558     0.16546212     329.78939      263.67224      66.117156      55.5252        299.75501      13.35592       56614.809      56548.766      28609.385      27939.381    
    132000   132000         0.19660987     0.15896671     330.50136      261.68264      68.818714      55.642602      299.51794      300.84342      58037.746      56550.128      28586.759      27963.37     
    133000   133000         0.1962478      0.13040578     345.05357      261.16247      83.891103      55.745259      300.11877      41.838254      56753.731      56546.848      28644.103      27902.745    
    134000   134000         0.19601107     0.16689115     327.9711       262.42009      65.551015      55.812584      298.58917     -144.2665       55831.211      56544.584      28498.114      28046.469    
    135000   135000         0.19563323     0.15488823     329.25536      258.62453      70.630834      55.920379      301.29806     -34.497607      56369.308      56539.893      28756.658      27783.235    
    136000   136000         0.19529323     0.15788446     339.24992      269.95948      69.290444      56.017736      299.78383      408.9073       58561.661      56539.686      28612.135      27927.551    
    137000   137000         0.19495934     0.15092432     337.30581      264.81991      72.485895      56.113671      297.28787      548.64439      59261.911      56548.961      28373.914      28175.047    
    138000   138000         0.19466559     0.13842664     342.09058      263.06038      79.030197      56.198348      300.48204      310.60033      58086.256      56550.392      28678.774      27871.617    
    139000   139000         0.19429318     0.18353926     325.71517      266.11002      59.605146      56.306066      300.77334      57.691314      56836.341      56551.068      28706.577      27844.491    
    140000   140000         0.19415843     0.21052824     321.08541      269.12143      51.963977      56.345143      300.01271      502.97424      59028.94       56541.821      28633.98       27907.84     
    141000   141000         0.19387341     0.14175805     338.02573      260.8528       77.172934      56.427977      298.33495      325.05226      58156.242      56548.915      28473.851      28075.065    
    142000   142000         0.19369891     0.26334497     317.36567      275.82364      41.54203       56.478813      299.91726      13.417458      56615.5        56549.153      28624.87       27924.283    
    143000   143000         0.19361977     0.13276187     345.08962      262.68731      82.402306      56.501897      300.47864      327.29869      58163.618      56545.184      28678.45       27866.734    
    144000   144000         0.19333498     0.14505245     336.31194      260.89175      75.420196      56.585126      298.90448      52.104522      56807.806      56550.158      28528.208      28021.95     
    145000   145000         0.19309192     0.14444097     338.73117      262.99168      75.739485      56.656355      299.91435      112.00355      57098.673      56544.835      28624.592      27920.243    
    146000   146000         0.19292966     0.16554293     333.60179      267.51691      66.084881      56.704007      300.50371      207.69796      57569.779      56542.749      28680.842      27861.907    
    147000   147000         0.19252288     0.15008504     337.27694      264.38571      72.891237      56.823815      299.10349     -187.56853      55615.399      56542.893      28547.202      27995.691    
    148000   148000         0.19214864     0.15099528     334.27885      261.82702      72.451829      56.934489      298.99865      491.45487      58978.971      56548.813      28537.196      28011.617    
    149000   149000         0.19181707     0.1882025      328.83097      270.70271      58.128263      57.032905      299.73952      864.42125      60823.702      56549.291      28607.906      27941.385    
    150000   150000         0.19157744     0.15302001     335.26061      263.76745      71.493164      57.104241      298.77213     -86.560816      56125.817      56553.845      28515.576      28038.269    
    151000   151000         0.1913289      0.18005613     326.13389      265.3757       60.758189      57.178422      297.31151      150.20155      57290.42       56547.7        28376.171      28171.529    
    152000   152000         0.19104466     0.16102575     334.22388      266.28515      67.938726      57.263492      298.18347     -26.942034      56421.34       56554.564      28459.393      28095.171    
    153000   153000         0.19085162     0.16200616     336.64164      269.11406      67.527586      57.321414      300.90944      345.71411      58254.133      56544.637      28719.566      27825.071    
    154000   154000         0.19060818     0.15753551     337.37813      267.9342       69.443929      57.394621      298.70173     -186.79998      55621.861      56545.555      28508.857      28036.697    
    155000   155000         0.19046275     0.14826294     332.0036       258.21655      73.787045      57.438448      299.40529     -392.38479      54610.356      56550.63       28576.006      27974.623    
    156000   156000         0.19027591     0.15767495     331.93993      262.55741      69.382515      57.494848      299.63081     -257.54356      55273.469      56546.976      28597.531      27949.446    
    157000   157000         0.19002788     0.14991804     338.56767      265.59523      72.972434      57.569893      300.48595     -207.06391      55519.748      56543.642      28679.147      27864.495    
    158000   158000         0.18977423     0.14157945     341.77032      264.50004      77.270287      57.646838      300.17825      807.98959      60540.966      56545.6        28649.78       27895.82     
    159000   159000         0.18961987     0.16271551     332.25683      265.02363      67.233199      57.693767      300.2434      -367.36171      54730.242      56546.781      28655.998      27890.784    
    160000   160000         0.1893936      0.17557296     326.12338      263.81376      62.309621      57.762692      299.3862       312.96328      58094.337      56546.788      28574.185      27972.603    
    161000   161000         0.18917431     0.22955553     321.0287       273.37189      47.65681       57.829652      299.44499     -51.050792      56297.974      56550.411      28579.795      27970.615    
    162000   162000         0.18902452     0.1907094      324.67692      267.31276      57.364159      57.875478      299.0644       573.93478      59389.678      56551.671      28543.471      28008.2      
    163000   163000         0.18880272     0.1866839      323.32508      264.72397      58.601114      57.943469      299.77374      152.29733      57306.334      56553.25       28611.172      27942.078    
    164000   164000         0.18869583     0.18494092     328.82627      269.67286      59.153401      57.976291      299.86124      295.96516      58010.892      56547.396      28619.523      27927.873    
    165000   165000         0.18855664     0.15897651     333.23399      264.41952      68.814471      58.01909       298.45625      343.44502      58251.96       56553.685      28485.428      28068.257    
    166000   166000         0.18834584     0.17208034     331.96192      268.38764      63.574286      58.084025      299.85415      371.61598      58383.379      56545.803      28618.846      27926.957    
    167000   167000         0.18804719     0.14985531     336.68297      263.67998      73.002983      58.176271      299.40467      207.55008      57572.819      56546.52       28575.947      27970.573    
    168000   168000         0.18776808     0.14754586     339.73067      265.58501      74.145655      58.262748      299.67646      406.61768      58555.015      56544.362      28601.887      27942.475    
    169000   169000         0.18747089     0.19615028     324.40551      268.63253      55.772975      58.355112      298.30423     -191.33086      55607.835      56553.933      28470.919      28083.014    
    170000   170000         0.18714628     0.15484449     336.44145      265.79066      70.650785      58.45633       299.39765      353.59444      58294.418      56545.955      28575.277      27970.678    
    171000   171000         0.18687019     0.13292512     341.86228      259.56118      82.301109      58.542696      298.6546       123.22876      57165.762      56556.418      28504.359      28052.059    
    172000   172000         0.18661409     0.17004489     330.51716      266.18189      64.335274      58.623035      299.53187     -90.513145      56098.939      56546.51       28588.088      27958.422    
    173000   173000         0.18639724     0.16442494     330.20061      263.6664       66.534214      58.691237      297.92201     -999.51488      51603.837      56546.262      28434.438      28111.824    
    174000   174000         0.18626313     0.13855752     339.31833      260.36279      78.955544      58.733495      300.34056     -335.29946      54883.317      56541.314      28665.271      27876.043    
    175000   175000         0.18607467     0.17177422     334.35241      270.66483      63.687579      58.792981      298.85968      272.15493      57886.55       56540.792      28523.932      28016.86     
    176000   176000         0.18592797     0.16599404     333.13721      267.23193      65.905284      58.83937       300.12453      42.202446      56753.18       56544.496      28644.652      27899.844    
    177000   177000         0.18575271     0.15982187     332.35028      263.8998       68.450483      58.894885      300.60067     -383.56214      54644.363      56541.011      28690.097      27850.914    
    178000   178000         0.18549117     0.1812261      327.68548      267.31954      60.365945      58.977925      298.74935      67.427588      56882.652      56549.234      28513.402      28035.832    
    179000   179000         0.18533957     0.16487274     331.06506      264.71155      66.353507      59.026167      299.26059     -267.90528      55225.484      56550.229      28562.196      27988.032    
    180000   180000         0.1852125      0.15581075     332.83799      262.62534      70.212643      59.066665      299.9854      -546.85268      53842.777      56546.867      28631.374      27915.493    
    181000   181000         0.18509012     0.16756176     329.38085      264.09218      65.288668      59.105718      298.57848     -211.60998      55497.337      56543.711      28497.094      28046.618    
    182000   182000         0.18495581     0.16025763     332.4039       264.13954      68.264359      59.148639      300.03086     -18.84622       56453.934      56547.125      28635.713      27911.413    
    183000   183000         0.18483502     0.15907465     341.5296       272.75758      68.772017      59.187293      299.79501     -234.11749      55389.313      56546.983      28613.202      27933.781    
    184000   184000         0.18460453     0.13509215     337.5887       256.6078       80.980902      59.261193      297.55766     -163.16067      55744.69       56551.491      28399.664      28151.827    
    185000   185000         0.18444398     0.1767714      333.56451      271.67733      61.887185      59.312777      299.97922     -107.28112      56016.385      56546.872      28630.784      27916.088    
    186000   186000         0.18433139     0.18690949     329.01787      270.48748      58.530387      59.349004      300.75608      368.43103      58363.171      56541.345      28704.93       27836.415    
    187000   187000         0.18427888     0.17090077     327.52239      263.50931      64.013079      59.365916      300.26513     -267.09592      55222.284      56543.026      28658.071      27884.955    
    188000   188000         0.18410352     0.1513158      333.20467      260.90631      72.298363      59.422463      298.96683     -481.5492       54172.185      56553.361      28534.158      28019.203    
    189000   189000         0.18385574     0.15090865     334.58556      262.09214      72.493423      59.502546      299.09896      144.67305      57264.78       56549.397      28546.769      28002.628    
    190000   190000         0.1835637      0.20155011     323.39178      269.11305      54.278732      59.597212      297.38272      28.332121      56690.66       56550.562      28382.968      28167.595    
    191000   191000         0.18344545     0.17430852     334.32309      271.56147      62.761616      59.635629      299.99216      84.244769      56961.994      56545.418      28632.019      27913.4      
    192000   192000         0.1832132      0.18375883     328.3953       268.86138      59.533925      59.711224      300.41743     -76.174133      56171.681      56548.349      28672.608      27875.741    
    193000   193000         0.18298051     0.13744551     336.90432      257.30999      79.594338      59.787156      298.31984      20.05787       56646.885      56547.702      28472.408      28075.294    
    194000   194000         0.18279324     0.17342939     326.83829      263.75853      63.079762      59.848408      299.32385     -288.87547      55118.175      56546.613      28568.233      27978.38     
    195000   195000         0.18259016     0.18511587     320.25979      261.1623       59.097497      59.914973      299.91366      602.88073      59528.918      56547.779      28624.527      27923.252    
    196000   196000         0.18247753     0.22399091     327.59171      278.75095      48.840753      59.951956      299.07838      299.90567      58024.123      56541.142      28544.806      27996.337    
    197000   197000         0.18243653     0.2103105      327.12287      275.10509      52.017777      59.965427      300.62254      80.803744      56944.062      56544.502      28692.184      27852.318    
    198000   198000         0.18237279     0.17413352     332.42378      269.59908      62.824692      59.986386      301.74642      167.97674      57370.516      56539.901      28799.45       27740.451    
    199000   199000         0.18233485     0.16172529     334.67434      267.02948      67.64486       59.998867      299.67808     -473.55751      54207.366      56549.025      28602.042      27946.983    
    200000   200000         0.18229121     0.1858388      339.6064       280.7388       58.867603      60.013232      301.08065      399.45629      58520.153      56544.912      28735.907      27809.005    
    201000   201000         0.1822716      0.20302062     316.492        262.60641      53.885582      60.019688      298.94021     -242.17292      55347.492      56544.995      28531.618      28013.377    
    202000   202000         0.18227425     0.16467121     336.9221       270.48739      66.434713      60.018816      300.12182     -468.75257      54227.827      56545.726      28644.394      27901.332    
    203000   203000         0.18219712     0.20634222     327.48471      274.46655      53.018158      60.044222      300.67446      527.69067      59151.935      56542.597      28697.14       27845.457    
    204000   204000         0.18208552     0.1674504      338.0863       272.75421      65.33209       60.081025      300.46433     -512.50725      54015.07       56549.329      28677.084      27872.245    
    205000   205000         0.18193799     0.15022957     338.7648       265.94369      72.821115      60.129744      299.40836     -428.76345      54431.408      56551.568      28576.3        27975.268    
    206000   206000         0.18187093     0.20207086     324.30764      270.16878      54.138854      60.151913      298.85327     -244.11577      55337.351      56544.46       28523.321      28021.14     
    207000   207000         0.18177304     0.14866412     335.1822       261.59427      73.587928      60.184306      299.30307     -246.85455      55324.981      56545.633      28566.25       27979.383    
    208000   208000         0.18166888     0.14860121     344.55057      270.93149      73.619082      60.218814      301.07771     -632.64993      53418.901      56547.244      28735.627      27811.617    
    209000   209000         0.18162535     0.17343045     331.09786      268.01848      63.079375      60.233246      299.01631     -240.80874      55361.41       56552.167      28538.881      28013.285    
    210000   210000         0.18161097     0.18176758     324.88866      264.70254      60.186116      60.238015      300.43546      4.8320176      56565.104      56541.211      28674.329      27866.882    
    211000   211000         0.18153609     0.14611186     333.83986      258.96651      74.873352      60.262864      299.18871     -139.27822      55856.091      56544.797      28555.335      27989.462    
    212000   212000         0.18143808     0.14486688     339.12417      263.60736      75.516807      60.295416      299.88761     -155.14966      55779.68       56546.868      28622.04       27924.828    
    213000   213000         0.18129        0.16653007     333.24044      267.54729      65.693147      60.344667      297.62223      434.97784      58704.58       56553.691      28405.827      28147.865    
    214000   214000         0.18115851     0.14824849     333.45189      259.65765      73.79424       60.388466      298.89283     -423.30001      54451.843      56544.987      28527.096      28017.892    
    215000   215000         0.18102311     0.14696284     331.94307      257.50327      74.4398        60.433636      299.52303      749.46374      60249.973      56544.007      28587.244      27956.763    
    216000   216000         0.18101278     0.17584155     329.30341      267.08896      62.214444      60.437085      298.95702     -83.127051      56141.577      56552.626      28533.223      28019.403    
    217000   217000         0.18101611     0.16070056     330.96103      262.88482      68.076205      60.435971      299.50452      302.08109      58038.383      56544.645      28585.477      27959.169    
    218000   218000         0.18098804     0.17618633     325.58623      263.49353      62.092698      60.445344      298.70189     -285.7552       55141.296      56554.305      28508.872      28045.433    
    219000   219000         0.18095648     0.12865998     333.94268      248.91325      85.029429      60.455889      299.6823      -216.3396       55480.404      56550.166      28602.445      27947.721    
    220000   220000         0.18088847     0.16729021     326.49864      261.10399      65.394647      60.478617      299.48731      509.87066      59075.393      56554.172      28583.835      27970.338    
    221000   221000         0.18080207     0.15223042     331.12862      259.26464      71.863986      60.507519      300.84172      73.953335      56907.272      56541.586      28713.103      27828.483    
    222000   222000         0.18072832     0.16428679     329.83409      263.24392      66.590165      60.53221       299.36125     -70.395175      56200.472      56548.564      28571.804      27976.76     
    223000   223000         0.18063875     0.14096733     338.76271      261.1569       77.605813      60.562223      299.17951      51.460209      56807.884      56553.423      28554.458      27998.965    
    224000   224000         0.18049446     0.17949229     336.03259      275.08354      60.94905       60.610639      299.20065      179.01931      57434.447      56549.228      28556.475      27992.753    
    225000   225000         0.18035718     0.17058507     334.66666      270.53511      64.131547      60.656772      299.96559      56.162462      56824.389      56546.675      28629.483      27917.192    
    226000   226000         0.180254       0.1472134      339.14382      264.83071      74.313105      60.691494      300.1032       524.36656      59134.262      56541.362      28642.617      27898.745    
    227000   227000         0.18009827     0.19546541     331.26612      275.29772      55.968392      60.743972      299.42082      185.61137      57465.894      56548.078      28577.489      27970.589    
    228000   228000         0.18003775     0.21540824     326.40108      275.61433      50.786751      60.764391      302.03208     -110.90227      55996.152      56544.544      28826.714      27717.83     
    229000   229000         0.17996157     0.1594729      333.44701      264.84674      68.600275      60.790115      299.28124      150.10161      57286.67       56544.444      28564.167      27980.277    
    230000   230000         0.17985414     0.15916447     330.00853      261.27532      68.733209      60.826427      300.48875     -337.88131      54874.121      56544.885      28679.414      27865.471    
    231000   231000         0.17968404     0.15996173     337.17851      268.78787      68.390636      60.884008      301.60969     -747.0556       52850.251      56544.31       28786.4        27757.91     
    232000   232000         0.1795592      0.17374467     337.19839      274.23309      62.965297      60.926336      299.52052      328.89362      58171.726      56545.405      28587.004      27958.401    
    233000   233000         0.17950038     0.1581246      339.9598       270.77458      69.185215      60.946303      298.57185     -146.74576      55828.255      56553.887      28496.46       28057.426    
    234000   234000         0.17946316     0.15211955     334.71705      262.80069      71.916362      60.958943      298.85399      125.06028      57165.877      56547.476      28523.389      28024.086    
    235000   235000         0.17942379     0.19187206     324.1506       267.13404      57.016558      60.972319      300.67943     -110.31814      56001.684      56547.188      28697.614      27849.574    
    236000   236000         0.17935345     0.16557141     329.00636      262.93285      66.073513      60.99623       299.00034     -246.29341      55332.112      56549.989      28537.357      28012.632    
    237000   237000         0.17922767     0.14896267     341.43187      267.99143      73.440445      61.039039      300.58487     -194.81987      55581.139      56544.489      28688.589      27855.901    
    238000   238000         0.17919703     0.17631263     326.07204      264.02382      62.048216      61.049474      300.48795      312.64334      58091.623      56545.657      28679.338      27866.319    
    239000   239000         0.17909966     0.16924885     337.84784      273.20997      64.637865      61.082664      299.69584      107.45797      57073.901      56542.54       28603.737      27938.803    
    240000   240000         0.17898937     0.17731755     334.15903      272.46246      61.696568      61.120303      299.14623     -238.34872      55368.156      56546.749      28551.281      27995.468    
    241000   241000         0.1788507      0.19541052     321.96082      265.9767       55.984113      61.167691      298.97183      588.05947      59464.603      56556.753      28534.636      28022.117    
    242000   242000         0.17877886     0.15838888     333.55833      264.48856      69.069774      61.192271      298.86589      425.70727      58652.165      56547.117      28524.524      28022.593    
    243000   243000         0.17877288     0.16892837     328.76527      264.00478      64.760493      61.194318      299.72233      115.66761      57113.932      56541.976      28606.266      27935.71     
    244000   244000         0.17875846     0.15672825     333.35953      263.55791      69.801614      61.199256      300.83218     -33.204054      56384.017      56548.206      28712.192      27836.013    
    245000   245000         0.17870077     0.17748665     331.74986      270.11207      61.637787      61.219011      302.48005      435.28402      58692.13       56539.727      28869.47       27670.258    
    246000   246000         0.17862953     0.20454807     328.84746      275.36427      53.483196      61.243427      300.4287      -233.5196       55390.262      56544.975      28673.684      27871.292    
    247000   247000         0.17866957     0.18864799     324.67965      266.68866      57.990994      61.229703      300.66068     -9.0895503      56496.01       56540.956      28695.824      27845.132    
    248000   248000         0.17865594     0.15164351     348.63541      276.49329      72.142122      61.234374      301.27845      61.142335      56843.769      56541.431      28754.786      27786.645    
    249000   249000         0.17867423     0.19296254     327.85713      271.16279      56.694343      61.228103      299.63892      184.48416      57462.435      56550.194      28598.305      27951.889    
    250000   250000         0.17868659     0.16103241     337.94628      270.01036      67.935919      61.22387       302.6841      -294.43681      55079.514      56535.452      28888.944      27646.508    
    251000   251000         0.17870011     0.19047325     328.84202      271.40674      57.43528       61.219238      301.53984      164.51917      57355.305      56541.786      28779.734      27762.053    
    252000   252000         0.17861117     0.14672979     334.23153      259.6735       74.558031      61.249723      300.17275      148.91606      57284.636      56548.273      28649.255      27899.018    
    253000   253000         0.17847296     0.17162874     334.78344      271.04187      63.741566      61.297155      299.84828     -34.621973      56374.976      56546.176      28618.287      27927.889    
    254000   254000         0.17838995     0.13329773     338.26182      256.19077      82.071051      61.325676      300.63584     -66.941546      56212.666      56543.68       28693.453      27850.227    
    255000   255000         0.1782648      0.15052716     327.80278      255.12563      72.677145      61.368732      299.45373      323.79653      58153.825      56552.708      28580.629      27972.079    
    256000   256000         0.17820923     0.17621984     330.63088      268.54999      62.08089       61.387867      299.04902     -398.70124      54574.864      56546.372      28542.003      28004.368    
    257000   257000         0.17811097     0.17347844     327.1347       264.07278      63.061925      61.421734      300.14824     -101.22612      56046.38       56546.926      28646.915      27900.011    
    258000   258000         0.17808837     0.16365176     328.06307      261.21451      66.848559      61.429529      299.93134      156.84647      57331.748      56556.17       28626.214      27929.956    
    259000   259000         0.17800062     0.1672373      329.49853      264.08319      65.415339      61.459813      298.93747      431.76472      58682.934      56547.933      28531.356      28016.577    
    260000   260000         0.17796746     0.13313364     334.40857      252.23637      82.172203      61.471264      298.62605     -69.943488      56199.455      56545.314      28501.633      28043.68     
    261000   261000         0.17796532     0.18959549     333.30249      275.60131      57.701186      61.472         299.26077      340.23933      58230.739      56548.315      28562.213      27986.102    
    262000   262000         0.17795772     0.1710916      326.8322       262.89052      63.941681      61.474626      299.69052     -80.215779      56151.618      56548.27       28603.23       27945.041    
    263000   263000         0.17786128     0.14644864     332.1055       257.40434      74.701167      61.50796       297.8316      -484.79153      54145.357      56542.566      28425.809      28116.756    
    264000   264000         0.17774921     0.13787747     341.16024      261.81526      79.344977      61.546741      299.04462     -582.10836      53669.934      56548.358      28541.583      28006.775    
    265000   265000         0.1775996      0.1381284      340.69031      261.48947      79.200834      61.598589      300.36893     -256.51172      55272.249      56540.655      28667.978      27872.676    
    266000   266000         0.17744573     0.13578294     348.72541      268.15649      80.568917      61.652001      300.41027     -482.13912      54165.868      56549.961      28671.924      27878.037    
    267000   267000         0.17730407     0.13880614     342.63793      263.8238       78.814126      61.701262      301.01095     -79.665004      56147.599      56541.528      28729.255      27812.274    
    268000   268000         0.17721842     0.18438008     324.97577      265.64244      59.333331      61.731081      299.48315      94.013048      57009.719      56544.841      28583.438      27961.404    
    269000   269000         0.177128       0.16464846     324.4758       258.0319       66.443893      61.762591      299.61895     -28.628424      56407.304      56548.867      28596.398      27952.468    
    270000   270000         0.17703232     0.16904022     329.65689      264.93925      64.717642      61.795972      299.76267     -489.0531       54128.653      56546.935      28610.116      27936.819    
    271000   271000         0.17689569     0.18109488     333.17371      272.76402      60.409686      61.843704      300.68281      97.943657      57032.747      56548.432      28697.937      27850.496    
    272000   272000         0.17685536     0.18680836     327.8815       269.31942      58.562072      61.857805      299.96759      340.16379      58227.156      56545.106      28629.673      27915.433    
    273000   273000         0.17682086     0.17819777     323.84342      262.45161      61.391815      61.869874      300.78671      165.58218      57368.144      56549.37       28707.852      27841.517    
    274000   274000         0.17673218     0.14964071     341.24681      268.13914      73.107675      61.90092       301.5488       457.84433      58801.51       56537.55       28780.589      27756.962    
    275000   275000         0.17666065     0.1738186      328.88751      265.949        62.938513      61.925984      300.03807     -240.92205      55352.975      56544.293      28636.401      27907.891    
    276000   276000         0.17655184     0.17187382     333.88216      270.23148      63.650675      61.964147      299.87493     -217.31832      55475.892      56550.493      28620.83       27929.662    
    277000   277000         0.17646838     0.15815513     340.79349      271.62163      69.171859      61.993456      300.64574      308.04949      58068.285      56545.034      28694.398      27850.636    
    278000   278000         0.1763973      0.14173058     334.71141      257.52352      77.187888      62.018435      300.02113      1023.9187      61613.963      56550.865      28634.784      27916.081    
    279000   279000         0.1763152      0.17986388     320.47994      259.65681      60.823131      62.047313      299.21444      805.44836      60530.973      56548.173      28557.792      27990.381    
    280000   280000         0.17627619     0.15227337     331.3189       259.47519      71.843712      62.061044      299.94354     -160.18125      55751.79       56543.858      28627.379      27916.479    
    281000   281000         0.17619815     0.13406794     339.94433      258.34477      81.599558      62.088533      299.45906      267.63811      57870.871      56547.448      28581.139      27966.309    
    282000   282000         0.17606511     0.15136781     327.88715      255.61363      72.273521      62.135447      300.18074     -2.8400937      56538.082      56552.126      28650.017      27902.108    
    283000   283000         0.17597977     0.15151672     329.94101      257.73852      72.20249       62.165581      300.83002     -161.39017      55750.46       56548.506      28711.986      27836.519    
    284000   284000         0.17590619     0.17352837     323.30435      260.26057      63.043779      62.191583      299.49243     -211.70528      55501.674      56548.519      28584.323      27964.196    
    285000   285000         0.17588385     0.15774728     330.10507      260.75437      69.3507        62.199483      299.39672      161.5912       57347.842      56548.802      28575.189      27973.614    
    286000   286000         0.17586718     0.16955103     332.27562      267.75295      64.522668      62.205378      298.59953      401.92106      58544.698      56557.269      28499.103      28058.166    
    287000   287000         0.17587466     0.23600914     325.11124      278.75759      46.353648      62.202733      297.85898     -599.09962      53587.029      56549.471      28428.423      28121.048    
    288000   288000         0.1758772      0.17113432     336.62937      272.70365      63.925719      62.201834      300.22642     -255.89933      55279.528      56544.905      28654.377      27890.528    
    289000   289000         0.17588904     0.15463011     337.02705      266.27832      70.748734      62.197646      300.21369      21.184683      56654.226      56549.472      28653.162      27896.31     
    290000   290000         0.17587482     0.14456758     336.83028      261.15712      75.673153      62.202675      299.70549      105.23477      57070.363      56549.996      28604.658      27945.337    
    291000   291000         0.17582807     0.16742826     331.34617      266.00544      65.340729      62.219215      298.14613     -174.97767      55682.373      56547.607      28455.829      28091.778    
    292000   292000         0.17578865     0.14538145     339.75061      264.50109      75.24952       62.233168      298.9802      -135.16715      55880.657      56549.035      28535.435      28013.601    
    293000   293000         0.17577294     0.19240185     322.8375       265.97794      56.859561      62.238729      299.06509      447.45438      58762.352      56549.768      28543.537      28006.232    
    294000   294000         0.17578592     0.16663069     334.7231       269.06962      65.65348       62.234135      300.10028     -135.89852      55874.252      56546.246      28642.338      27903.907    
    295000   295000         0.17578472     0.16908169     330.82945      266.12768      64.701769      62.23456       300.3187      -174.70316      55682.173      56546.049      28663.184      27882.865    
    296000   296000         0.17578727     0.20467287     327.93865      274.48807      53.450584      62.233655      299.29         149.02637      57279.514      56542.605      28565.003      27977.602    
    297000   297000         0.17578161     0.1518971      336.14958      264.1279       72.021679      62.23566       299.20323      395.30991      58506.744      56552.006      28556.721      27995.284    
    298000   298000         0.17579321     0.19898286     330.25632      275.27729      54.979031      62.231552      299.00611     -494.70104      54101.798      56548.007      28537.908      28010.099    
    299000   299000         0.17576677     0.19063126     334.97474      277.58707      57.387674      62.240915      299.10863     -77.840419      56166.385      56551.292      28547.692      28003.599    
    300000   300000         0.17575523     0.19311058     325.47962      268.82874      56.650881      62.245001      298.60676     -83.489671      56132.899      56545.741      28499.793      28045.948    
    301000   301000         0.17577173     0.19686894     327.51273      271.94336      55.569377      62.23916       299.39732      5.5544295      56573.717      56546.252      28575.246      27971.006    
    302000   302000         0.17580469     0.18191121     333.42257      273.28398      60.138594      62.22749       300.89547      105.3017       57068.107      56547.409      28718.233      27829.175    
    303000   303000         0.17577962     0.20854487     330.5593       278.10112      52.458182      62.236363      299.97769      430.36792      58678.136      56550.042      28630.638      27919.404    
    304000   304000         0.17578717     0.17261358     335.63285      272.25496      63.377892      62.233691      300.17635     -70.944428      56192.617      56543.425      28649.598      27893.826    
    305000   305000         0.17576885     0.1906279      333.96535      276.57666      57.388685      62.240178      299.00665     -150.34041      55801.585      56544.992      28537.959      28007.033    
    306000   306000         0.17576666     0.18337983     337.09751      277.44054      59.656967      62.240954      299.52941      76.116845      56921.964      56545.579      28587.853      27957.726    
    307000   307000         0.17579853     0.19122023     327.43271      270.2218       57.210916      62.229671      299.09956      145.41609      57261.828      56542.771      28546.827      27995.944    
    308000   308000         0.175833       0.162977       337.77166      270.64633      67.125329      62.21747       300.1572       424.77951      58640.94       56540.48       28647.771      27892.709    
    309000   309000         0.17582465     0.18848467     331.786        273.74475      58.041242      62.220426      301.10468      558.7363       59311.803      56548.95       28738.201      27810.749    
    310000   310000         0.1758247      0.19155689     330.34402      273.23365      57.110367      62.220406      299.7886      -40.324562      56350.378      56549.776      28612.591      27937.185    
    311000   311000         0.17583381     0.18451882     327.86106      268.57235      59.288719      62.217185      301.9193       20.783609      56642.3        56539.528      28815.95       27723.578    
    312000   312000         0.17584015     0.18603599     328.02565      269.22045      58.805205      62.214941      301.31008      197.62954      57516.534      56539.291      28757.805      27781.486    
    313000   313000         0.17582171     0.1332955      345.92487      263.85245      82.072419      62.221467      299.7919      -120.60058      55946.29       56542.639      28612.905      27929.733    
    314000   314000         0.17574235     0.17372671     329.7654       266.79359      62.971805      62.249564      299.24678     -611.53235      53525.841      56549.761      28560.878      27988.883    
    315000   315000         0.17567464     0.16730175     333.64848      268.25835      65.390137      62.273555      300.84817     -132.27357      55887.53       56541.6        28713.718      27827.881    
    316000   316000         0.17565312     0.18007076     327.96021      267.20695      60.753255      62.281185      300.45895      269.75453      57879.838      56545.949      28676.57       27869.379    
    317000   317000         0.17559007     0.15648855     337.59733      267.6888       69.908529      62.303548      299.84055      22.178775      56650.293      56540.623      28617.549      27923.075    
    318000   318000         0.17553831     0.17522029     333.76199      271.32696      62.435031      62.321921      300.62862      112.70378      57107.093      56549.793      28692.764      27857.029    
    319000   319000         0.17549454     0.15824293     336.15379      267.02031      69.133479      62.337465      297.8446      -441.74624      54371.315      56555.673      28427.05       28128.623    
    320000   320000         0.17544996     0.21155458     326.8498       275.13792      51.711877      62.353304      301.10024     -19.2675        56448.568      56543.842      28737.777      27806.065    
    321000   321000         0.17544948     0.16258895     339.483        272.19746      67.285536      62.353473      299.81155      30.265443      56698.915      56549.258      28614.781      27934.477    
    322000   322000         0.17542381     0.16693059     328.71758      263.18205      65.535529      62.362597      299.7408      -67.687218      56210.502      56545.204      28608.029      27937.175    
    323000   323000         0.17534242     0.14883704     336.39904      262.8966       73.502433      62.391544      300.11016     -350.53575      54816.987      56550.325      28643.281      27907.044    
    324000   324000         0.17528118     0.18989536     330.08868      272.47861      57.610066      62.413344      299.25272     -191.54661      55605.252      56552.417      28561.445      27990.972    
    325000   325000         0.17526257     0.16804266     335.32164      270.21981      65.101829      62.419972      299.11538     -276.87698      55180.403      56549.511      28548.337      28001.174    
    326000   326000         0.17522963     0.17287936     326.53926      263.25881      63.280456      62.431703      299.84633      2.1920662      56560.542      56549.702      28618.101      27931.602    
    327000   327000         0.17517345     0.14935555     333.61536      260.3681       73.247256      62.451728      299.49438     -86.804629      56119.387      56548.621      28584.509      27964.112    
    328000   328000         0.17512661     0.15557186     333.83585      263.51539      70.320458      62.468432      299.59        -362.03978      54760.711      56550.934      28593.636      27957.298    
    329000   329000         0.17511589     0.15661108     330.38519      260.53135      69.853837      62.472255      298.47927     -143.88717      55842.607      56554.104      28487.625      28066.479    
    330000   330000         0.17510579     0.24699913     319.13334      274.84215      44.291187      62.475858      299.73931     -189.9803       55609.829      56549.248      28607.886      27941.362    
    331000   331000         0.17513604     0.16056854     344.01249      275.88031      68.132179      62.465069      299.21774     -24.632035      56424.967      56546.768      28558.106      27988.662    
    332000   332000         0.17514511     0.16453393     326.26125      259.77111      66.490141      62.461834      300.5566      -5.5803004      56519.766      56547.359      28685.891      27861.468    
    333000   333000         0.17513551     0.16336776     336.87918      269.91441      66.964772      62.465256      298.35634     -548.50553      53843.716      56555.979      28475.892      28080.087    
    334000   334000         0.17512696     0.21251039     327.39574      275.91645      51.479292      62.468307      299.14326      138.30171      57226.619      56542.741      28550.997      27991.744    
    335000   335000         0.17513189     0.14884168     337.92303      264.42289      73.500141      62.466547      301.44         516.15077      59097.312      56545.037      28770.204      27774.833    
    336000   336000         0.17510294     0.14850459     328.19639      254.52941      73.666977      62.476874      299.86544      24.641152      56666.545      56544.699      28619.924      27924.775    
    337000   337000         0.17504691     0.14602302     343.38942      268.47051      74.918905      62.496874      298.38522     -115.12408      55977.876      56547.144      28478.649      28068.495    
[...]
    931000   931000         0.17412771     0.22546638     320.30101      271.77988      48.521134      62.826785      299.02146     -487.13901      54137.228      56546.044      28539.373      28006.672    
    932000   932000         0.17412343     0.16130215     334.52776      266.70545      67.822309      62.82833       298.42169      180.29502      57444.367      56552.84       28482.129      28070.711    
    933000   933000         0.17411987     0.15857363     336.89313      267.90383      68.989303      62.829615      300.98283     -182.99391      55639.457      56544.33       28726.571      27817.759    
    934000   934000         0.17411844     0.17087754     333.74542      269.72364      64.021783      62.830131      298.86464     -87.688856      56120.184      56553.79       28524.406      28029.384    
    935000   935000         0.17411847     0.17587203     322.71029      260.50663      62.203664      62.83012       297.20815      40.449842      56758.837      56558.82       28366.306      28192.514    
    936000   936000         0.17411436     0.15682579     331.94901      262.19081      69.758196      62.831604      299.62929     -192.06017      55593.27       56542.974      28597.385      27945.588    
    937000   937000         0.1741156      0.16422787     339.23725      272.62319      66.614054      62.831156      299.48143     -77.570966      56163.702      56547.277      28583.273      27964.003    
    938000   938000         0.17411117     0.15341469     342.27947      270.97023      71.309238      62.832755      300.23099     -38.223995      56356.807      56545.818      28654.814      27891.004    
    939000   939000         0.17409993     0.16781047     339.60532      274.41342      65.191905      62.836812      300.41834      155.4456       57316.081      56547.43       28672.695      27874.735    
    940000   940000         0.17409493     0.21865713     318.37328      268.34114      50.032143      62.838615      299.36796      390.74707      58475.015      56542.84       28572.444      27970.396    
    941000   941000         0.17408146     0.15622666     338.49004      268.46432      70.02572       62.843477      300.10655      105.47451      57069.04       56547.487      28642.937      27904.55     
    942000   942000         0.17406739     0.15544381     338.83416      268.45577      70.378387      62.84856       300.22887      435.57297      58703.748      56549.916      28654.611      27895.305    
    943000   943000         0.17408268     0.24203052     328.63855      283.43811      45.200434      62.843038      298.74272      454.34999      58794.798      56548.117      28512.769      28035.349    
    944000   944000         0.17409049     0.15891929     339.06087      270.22162      68.839249      62.84022       298.56548      201.32122      57542.646      56547.148      28495.853      28051.295    
    945000   945000         0.17408752     0.18262654     335.95023      276.04719      59.903038      62.841293      299.44195     -484.18711      54153.391      56547.611      28579.505      27968.106    
    946000   946000         0.17408584     0.14288769     339.50186      262.93904      76.562821      62.841898      299.80894     -191.42587      55604.441      56551.008      28614.532      27936.476    
    947000   947000         0.17406985     0.16707982     329.68206      264.20506      65.476996      62.847671      298.44138      574.41983      59388.094      56547.689      28484.009      28063.68     
    948000   948000         0.17405376     0.15332659     335.15665      263.80644      71.350212      62.853478      299.17489      281.85792      57939.654      56545.916      28554.016      27991.9      
    949000   949000         0.17404536     0.16557112     331.41691      265.34328      66.073627      62.856512      299.50095     -316.37111      54986.439      56550.839      28585.136      27965.703    
    950000   950000         0.17404981     0.1683715      330.621        265.64632      64.974682      62.854905      300.751        179.5686       57428.389      56540.454      28704.444      27836.01     
    951000   951000         0.17403255     0.14906759     339.74041      266.35166      73.388754      62.861142      300.65613     -53.638575      56282.714      56547.947      28695.39       27852.557    
    952000   952000         0.17401064     0.15082472     330.46159      257.92782      72.533765      62.869056      299.91167      144.10777      57262.573      56549.985      28624.337      27925.649    
    953000   953000         0.17400118     0.16884205     335.56572      270.77212      64.793601      62.872473      300.28179      61.860938      56849.549      56543.658      28659.662      27883.995    
    954000   954000         0.17398922     0.1508039      342.71323      270.16945      72.543777      62.876795      299.79229     -662.43901      53270.686      56546.33       28612.943      27933.387    
    955000   955000         0.17399617     0.20859072     328.30528      275.85863      52.446649      62.874284      300.29406     -323.78118      54943.304      56544.345      28660.833      27883.512    
    956000   956000         0.17398539     0.18321646     332.00828      272.29812      59.710161      62.878178      299.14462      634.00836      59684.583      56549.523      28551.128      27998.395    
    957000   957000         0.1739899      0.19938676     323.56272      268.69506      54.867659      62.876548      300.99601     -507.27654      54042.478      56550.871      28727.829      27823.042    
    958000   958000         0.17399875     0.16458033     334.37994      267.90854      66.471395      62.873352      298.71162      576.29659      59397.835      56548.149      28509.801      28038.349    
    959000   959000         0.1739788      0.14365271     346.65975      270.50467      76.155085      62.880562      300.35533     -35.873814      56369.065      56546.454      28666.68       27879.774    
    960000   960000         0.17396137     0.13399488     341.69995      260.0559       81.644046      62.886863      299.79669     -186.55979      55626.81       56549.315      28613.363      27935.953    
    961000   961000         0.17392984     0.17076809     336.30857      272.24575      64.062816      62.898262      299.91019     -109.18568      56006.189      56546.093      28624.195      27921.897    
    962000   962000         0.17389663     0.14528257     328.96735      253.66662      75.300738      62.910272      300.02701      83.425391      56960.153      56547.629      28635.345      27912.284    
    963000   963000         0.17387939     0.15259283     332.48806      260.79475      71.693306      62.916509      299.22532      408.96669      58576.396      56554.127      28558.83       27995.298    
    964000   964000         0.17385638     0.14188556     337.66203      260.55845      77.10358       62.924837      301.08288     -264.41034      55241.135      56548.597      28736.12       27812.478    
    965000   965000         0.17383987     0.14671486     331.07345      256.50783      74.565621      62.930814      300.45519      596.87931      59496.579      56545.116      28676.212      27868.905    
    966000   966000         0.17381945     0.15188065     331.6417       259.61222      72.02948       62.938209      300.65218     -101.01159      56041.41       56540.894      28695.012      27845.882    
    967000   967000         0.17381125     0.18775544     328.29138      270.02471      58.266671      62.941176      301.18926     -234.10075      55381.147      56538.734      28746.273      27792.462    
    968000   968000         0.1737982      0.13950155     334.43091      256.00967      78.42124       62.945903      300.60565     -401.31571      54562.168      56546.603      28690.572      27856.032    
    969000   969000         0.17376158     0.14614848     336.48091      261.62632      74.854588      62.959168      300.40528     -283.27919      55148.194      56548.96       28671.448      27877.512    
    970000   970000         0.17373535     0.16335606     327.49457      260.525        66.969564      62.968674      299.65078     -80.307148      56147.77       56544.874      28599.436      27945.438    
    971000   971000         0.17371705     0.16190177     330.84352      263.27239      67.571125      62.975306      298.56002     -28.841596      56405.838      56548.454      28495.332      28053.122    
    972000   972000         0.17369538     0.14270426     335.14316      258.48193      76.661232      62.983163      300.14265      231.54907      57690.81       56545.841      28646.382      27899.459    
    973000   973000         0.17368324     0.19401578     326.50436      270.11779      56.386571      62.987567      298.97757     -395.32679      54593.057      56547.879      28535.184      28012.695    
    974000   974000         0.17366932     0.18530513     323.72073      264.68359      59.037139      62.992614      299.29162     -592.67351      53620.141      56550.807      28565.158      27985.65     
    975000   975000         0.17365247     0.18039238     326.99887      266.35393      60.644937      62.998728      299.6771      -61.154894      56246.949      56549.349      28601.949      27947.4      
    976000   976000         0.17363192     0.16068319     330.12933      262.04576      68.083567      63.006184      300.22434     -301.21643      55060.564      56550.026      28654.178      27895.848    
    977000   977000         0.17362179     0.12416526     344.32987      256.22242      88.107453      63.009858      300.05528     -434.7762       54389.112      56539.004      28638.043      27900.961    
    978000   978000         0.17361094     0.18733724     324.24714      265.8504       58.396743      63.013796      298.12493      117.13431      57130.093      56550.884      28453.806      28097.079    
    979000   979000         0.17359009     0.16703215     328.90024      263.40456      65.495681      63.021367      300.2041      -176.48301      55670.141      56542.818      28652.247      27890.571    
    980000   980000         0.17357509     0.16116085     332.42226      264.54048      67.881775      63.02681       301.10531     -666.72883      53246.193      56543.05       28738.261      27804.789    
    981000   981000         0.17355757     0.16033105     329.52241      261.28931      68.2331        63.033174      299.95692     -341.47597      54864.426      56552.965      28628.655      27924.31     
    982000   982000         0.17355159     0.15493981     337.01848      266.41116      70.607318      63.035347      299.54758      551.54815      59274.224      56546.915      28589.587      27957.328    
    983000   983000         0.17356773     0.18505628     324.38011      265.26358      59.116527      63.029485      300.96711     -238.9035       55360.435      56541.771      28725.071      27816.7      
    984000   984000         0.17358182     0.1740229      336.83658      273.97195      62.864627      63.024369      299.87501      331.70021      58190.228      56550.028      28620.838      27929.19     
    985000   985000         0.17359156     0.17271441     323.9212       260.58031      63.34089       63.020832      298.79228      284.13976      57952.198      56547.177      28517.5        28029.677    
    986000   986000         0.17360161     0.16284823     326.94118      259.76277      67.178408      63.017182      298.13304     -370.6072       54717.925      56550.513      28454.579      28095.933    
    987000   987000         0.1736066      0.15203856     336.01122      264.05655      71.954669      63.015372      300.7298      -225.2006       55428.468      56542.045      28702.421      27839.624    
    988000   988000         0.17361569     0.19947406     318.73049      263.88685      54.843645      63.012075      298.32923     -276.1973       55188.522      56554.269      28473.304      28080.964    
    989000   989000         0.17361771     0.18153586     331.33401      271.07107      60.262941      63.011339      298.74217     -8.1746656      56512.213      56552.635      28512.717      28039.918    
    990000   990000         0.17363624     0.24404975     318.58679      273.76034      44.826452      63.004616      299.32115      223.26834      57653.853      56549.83       28567.976      27981.854    
    991000   991000         0.17364787     0.18294796     322.67189      262.8741       59.797795      63.000395      299.62692      133.18417      57203.836      56545.263      28597.159      27948.104    
    992000   992000         0.17365989     0.18235684     331.4302       271.43857      59.991631      62.996037      300.68616      122.99998      57152.565      56544.352      28698.256      27846.096    
    993000   993000         0.1736571      0.14232191     336.33722      259.47004      76.867183      62.997046      299.94937      66.984926      56877.035      56545.806      28627.934      27917.872    
    994000   994000         0.17364504     0.19351189     327.09162      270.55823      56.533397      63.001421      299.11375     -161.94805      55749.647      56550.451      28548.181      28002.27     
    995000   995000         0.17362892     0.14543151     336.98896      261.76534      75.223617      63.007273      298.75245     -154.0462       55791.693      56553.425      28513.697      28039.727    
    996000   996000         0.1736181      0.15886767     331.63055      262.76893      68.861618      63.011197      298.61836      99.451358      57041.14       56549.371      28500.9        28048.471    
    997000   997000         0.17359038     0.14188665     345.07824      267.97526      77.102987      63.021261      300.72561     -369.3681       54719.896      56546.356      28702.021      27844.335    
    998000   998000         0.1735697      0.13861511     342.97193      264.04918      78.922743      63.02877       300.31111      230.77504      57686.859      56545.717      28662.46       27883.257    
    999000   999000         0.17354578     0.14820497     335.84845      262.03254      73.81591       63.037458      298.98403      915.26344      61073.163      56547.347      28535.801      28011.546    
   1000000   1000000        0.17353648     0.1447215      343.81341      268.22073      75.592671      63.040833      300.64304      49.589499      56785.001      56539.789      28694.14       27845.649    
   1001000   1001000        0.17352929     0.19778466     330.85281      275.54071      55.312097      63.043445      301.23695     -8.9393271      56496.288      56540.491      28750.825      27789.667    
   1002000   1002000        0.17352146     0.14279868     339.3759       262.76536      76.610543      63.046292      300.52993      481.65082      58927.85       56546.172      28683.345      27862.827    
   1003000   1003000        0.17349621     0.12892144     350.95766      266.10068      84.856984      63.055468      299.2035      -248.05075      55320.854      56547.421      28556.747      27990.674    
   1004000   1004000        0.17348965     0.19310992     319.74483      263.09375      56.651075      63.057852      299.8334      -43.365166      56327.885      56542.318      28616.867      27925.451    
   1005000   1005000        0.1734785      0.18593718     331.48322      272.64677      58.836456      63.061903      299.23303     -527.64442      53940.932      56550.041      28559.566      27990.476    
   1006000   1006000        0.17346198     0.1602972      338.58287      270.33537      68.247509      63.06791       300.78078      98.362064      57033.203      56546.82       28707.287      27839.532    
   1007000   1007000        0.1734433      0.17488294     334.82147      272.266        62.555469      63.074703      300.1934      -237.49622      55374.496      56548.873      28651.226      27897.647    
   1008000   1008000        0.17342546     0.16030109     338.69296      270.44711      68.245853      63.081192      298.20584     -152.44667      55799.217      56553.039      28461.528      28091.511    
   1009000   1009000        0.1734076      0.15877857     334.61832      265.71807      68.900257      63.087689      301.01572      518.2025       59111.828      56549.408      28729.71       27819.698    
   1010000   1010000        0.17339125     0.16614738     330.02011      264.17565      65.844461      63.093637      299.88289     -121.67192      55945.796      56547.443      28621.59       27925.853    
   1011000   1011000        0.17336394     0.15916978     336.84897      268.11806      68.730916      63.103577      299.0111      -317.75185      54973.868      56545.095      28538.384      28006.711    
   1012000   1012000        0.17334618     0.1553159      331.76197      261.32562      70.436347      63.110042      300.33209     -279.25283      55166.819      56547.675      28664.463      27883.213    
   1013000   1013000        0.17333232     0.17008084     336.63372      272.31204      64.321677      63.115087      299.5465       188.67893      57480.875      56547.891      28589.484      27958.407    
   1014000   1014000        0.17331378     0.13787062     353.17537      273.82645      79.348916      63.121839      301.75459      612.91978      59573.519      56542.738      28800.23       27742.509    
   1015000   1015000        0.17328697     0.16561232     338.23358      272.17639      66.05719       63.131604      300.08795      49.017161      56789.484      56547.103      28641.161      27905.942    
   1016000   1016000        0.17326511     0.14739469     332.51308      258.29138      74.221702      63.139571      300.39938     -310.58284      55010.821      56546.598      28670.885      27875.714    
   1017000   1017000        0.17324985     0.14891211     343.24125      269.77587      73.46538       63.145132      300.6974       44.363601      56769.409      56550.039      28699.329      27850.711    
   1018000   1018000        0.1732468      0.19400594     329.17092      272.78149      56.389431      63.146243      299.95406      75.995747      56928.63       56552.845      28628.383      27924.462    
   1019000   1019000        0.17326119     0.2728924      319.05631      278.96767      40.088638      63.140997      299.28341      182.78852      57453.368      56549.511      28564.374      27985.137    
   1020000   1020000        0.1732756      0.17239745     332.90319      269.44585      63.457343      63.135748      298.8533      -305.11833      55039.469      56548.226      28523.323      28024.903    
Loop time of 10638.7 on 32 procs for 1000000 steps with 32020 atoms

Performance: 8.121 ns/day, 2.955 hours/ns, 93.997 timesteps/s, 3.010 Matom-step/s
99.4% CPU use with 32 MPI tasks x 1 OpenMP threads

MPI task timing breakdown:
Section |  min time  |  avg time  |  max time  |%varavg| %total
---------------------------------------------------------------
Pair    | 6778.4     | 7511.3     | 8307.9     | 384.8 | 70.60
Bond    | 187.77     | 203.67     | 218.82     |  57.2 |  1.91
Kspace  | 1061.8     | 1851.6     | 2585.5     | 767.7 | 17.40
Neigh   | 338.82     | 351.4      | 355.87     |  21.5 |  3.30
Comm    | 402.7      | 525.25     | 727.95     | 357.6 |  4.94
Output  | 0.090328   | 0.10474    | 0.26306    |   9.1 |  0.00
Modify  | 79.474     | 171.94     | 274.66     | 510.9 |  1.62
Other   |            | 23.38      |            |       |  0.22

Nlocal:        1000.62 ave        1038 max         932 min
Histogram: 1 1 0 4 2 3 4 10 1 6
Nghost:        11101.6 ave       11205 max       11005 min
Histogram: 3 2 3 3 5 5 5 2 3 1
Neighs:         542984 ave      588025 max      480599 min
Histogram: 1 1 2 4 1 7 4 6 4 2

Total # of neighbors = 17375495
Ave neighs/atom = 542.64507
Ave special neighs/atom = 11.48782
Neighbor list builds = 28148
Dangerous builds = 0
Total wall time: 3:00:50
