units real
atom_style full
boundary p p p

# styles
pair_style lj/charmm/coul/long 8.0 12.0
kspace_style pppm 1e-6
dielectric 1.000000
bond_style harmonic
angle_style harmonic
dihedral_style fourier
improper_style cvff
special_bonds amber
pair_modify mix arithmetic
neighbor 2.0 bin
neigh_modify delay 0 every 1 check yes

# system definition
read_data ../final.data
Reading data file ...
  orthogonal box = (-33.330319 -36.534749 -30.91591) to (33.330319 36.534749 30.91591)
  4 by 4 by 2 MPI processor grid
  reading atoms ...
  32020 atoms
  reading velocities ...
  32020 velocities
  scanning bonds ...
  3 = max bonds/atom
  scanning angles ...
  6 = max angles/atom
  scanning dihedrals ...
  15 = max dihedrals/atom
  scanning impropers ...
  1 = max impropers/atom
  reading bonds ...
  32010 bonds
  reading angles ...
  60000 angles
  reading dihedrals ...
  79910 dihedrals
  reading impropers ...
  2000 impropers
Finding 1-2 1-3 1-4 neighbors ...
  special bond factors lj:    0        0        0.5     
  special bond factors coul:  0        0        0.8333333333333334
     4 = max # of 1-2 neighbors
     8 = max # of 1-3 neighbors
    17 = max # of 1-4 neighbors
    20 = max # of special neighbors
  special bonds CPU = 0.083 seconds
  read_data CPU = 0.515 seconds
# do not reset velocities

# vars
variable dt equal 1.0
variable tLog equal 1000
variable nEvery equal 10
variable nRepeat equal 100
variable boolDump equal 0
variable tDump equal 1000

variable tPreeq equal 10000
variable tPrerun equal 10000
variable tDelay equal 1000
variable tTCrun equal 1000000

# desiered temperature difference
variable Tavg equal 300.0
variable TempDiff equal 100.0
variable Thi equal ${Tavg}+(${TempDiff}/2)
variable Thi equal 300+(${TempDiff}/2)
variable Thi equal 300+(100/2)
variable Tlo equal ${Tavg}-(${TempDiff}/2)
variable Tlo equal 300-(${TempDiff}/2)
variable Tlo equal 300-(100/2)

# defining regions
variable hot_lo equal (lx*0)+xlo
variable hot_hi equal (lx*0.05)+xlo
variable cold_lo equal (lx*0.50)+xlo
variable cold_hi equal (lx*0.55)+xlo

# define heating and cooling block regions
region hot block ${hot_lo} ${hot_hi} INF INF INF INF units box
region hot block -33.3303191583107 ${hot_hi} INF INF INF INF units box
region hot block -33.3303191583107 -29.9972872424796 INF INF INF INF units box
region cold block ${cold_lo} ${cold_hi} INF INF INF INF units box
region cold block 0 ${cold_hi} INF INF INF INF units box
region cold block 0 3.33303191583107 INF INF INF INF units box
compute Thot all temp/region hot
compute Tcold all temp/region cold

# STEP 1 - 1st equilibration (nve)
# 1a - thermo output for md1
thermo_style custom step time temp c_Thot c_Tcold press enthalpy etotal ke pe
thermo_modify colname c_Thot Temp_hot colname c_Tcold Temp_cold
thermo_modify flush yes
thermo ${tLog}
thermo 1000

# 1b - nve equilibration
timestep ${dt}
timestep 1
fix md1 all nve
run ${tPreeq}
run 10000
PPPM initialization ...
  using 12-bit tables for long-range coulomb (src/kspace.cpp:342)
  G vector (1/distance) = 0.25629853
  grid = 50 54 48
  stencil order = 5
  estimated absolute RMS force accuracy = 0.00035481857
  estimated relative force accuracy = 1.0685256e-06
  using double precision FFTW3
  3d grid and FFT values/proc = 11780 5400
Generated 21 of 21 mixed pair_coeff terms from arithmetic mixing rule
Neighbor list info ...
  update: every = 1 steps, delay = 0 steps, check = yes
  max neighbors/atom: 2000, page size: 100000
  master list distance cutoff = 14
  ghost atom cutoff = 14
  binsize = 7, bins = 10 11 9
  1 neighbor lists, perpetual/occasional/extra = 1 0 0
  (1) pair lj/charmm/coul/long, perpetual
      attributes: half, newton on
      pair build: half/bin/newton
      stencil: half/bin/3d
      bin: standard
Per MPI rank memory allocation (min/avg/max) = 18.11 | 18.46 | 18.65 Mbytes
   Step          Time           Temp         Temp_hot      Temp_cold        Press         Enthalpy        TotEng         KinEng         PotEng    
         0   0              301.29534      306.00458      292.82314     -364.57431      74529.36       76130.686      28756.398      47374.288    
      1000   1000           299.73111      304.85994      292.84544      451.01357      78117.83       76136.836      28607.104      47529.732    
      2000   2000           302.13503      300.63704      295.8995      -107.20829      75658.758      76129.651      28836.539      47293.112    
      3000   3000           300.52217      298.05205      303.78786     -10.38982       76094.18       76139.816      28682.604      47457.211    
      4000   4000           301.97549      297.48452      300.44771     -83.902929      75766.292      76134.82       28821.313      47313.507    
      5000   5000           301.52743      308.89056      304.16853      138.19615      76737.298      76130.297      28778.549      47351.748    
      6000   6000           302.03756      309.52735      302.1531       328.21064      77575.609      76134.005      28827.237      47306.768    
      7000   7000           301.31761      301.00745      306.12025     -357.49989      74566.936      76137.188      28758.523      47378.665    
      8000   8000           301.39707      298.96043      306.50461      182.01363      76932.472      76133.011      28766.107      47366.904    
      9000   9000           301.24745      287.21009      299.36553      254.07614      77242.877      76126.895      28751.827      47375.068    
     10000   10000          300.81516      306.26499      294.80928     -299.6309       74825.025      76141.099      28710.568      47430.531    
Loop time of 125.392 on 32 procs for 10000 steps with 32020 atoms

Performance: 6.890 ns/day, 3.483 hours/ns, 79.750 timesteps/s, 2.554 Matom-step/s
99.5% CPU use with 32 MPI tasks x 1 OpenMP threads

MPI task timing breakdown:
Section |  min time  |  avg time  |  max time  |%varavg| %total
---------------------------------------------------------------
Pair    | 80.87      | 85.228     | 92.642     |  31.0 | 67.97
Bond    | 1.6174     | 1.7484     | 2.0152     |   5.9 |  1.39
Kspace  | 19.288     | 26.815     | 31.41      |  55.5 | 21.38
Neigh   | 5.4421     | 5.4767     | 5.5063     |   0.8 |  4.37
Comm    | 4.3392     | 5.027      | 5.7412     |  18.7 |  4.01
Output  | 0.001241   | 0.0018485  | 0.0056455  |   1.9 |  0.00
Modify  | 0.051614   | 0.055732   | 0.063811   |   1.0 |  0.04
Other   |            | 1.039      |            |       |  0.83

Nlocal:        1000.62 ave        1034 max         962 min
Histogram: 1 4 4 2 2 3 6 6 1 3
Nghost:        11933.7 ave       11992 max       11882 min
Histogram: 2 5 4 5 1 4 3 1 4 3
Neighs:         610995 ave      643883 max      578814 min
Histogram: 3 0 6 1 5 6 3 3 3 2

Total # of neighbors = 19551834
Ave neighs/atom = 610.61318
Ave special neighs/atom = 10.738289
Neighbor list builds = 403
Dangerous builds = 0
unfix md1

# STEP 2 - pre run
# 2a - impose nve
fix md2 all nve

# 2b - impose thermostating
fix hot all langevin ${Thi} ${Thi} 100.0 57485 tally yes
fix hot all langevin 350 ${Thi} 100.0 57485 tally yes
fix hot all langevin 350 350 100.0 57485 tally yes
fix cold all langevin ${Tlo} ${Tlo} 100.0 12490 tally yes
fix cold all langevin 250 ${Tlo} 100.0 12490 tally yes
fix cold all langevin 250 250 100.0 12490 tally yes
fix_modify hot temp Thot
fix_modify cold temp Tcold
# calculate tdiff of regions
variable tdiff equal c_Thot-c_Tcold

# 2c - thermo output
thermo_style custom step time temp c_Thot c_Tcold f_hot f_cold v_tdiff press enthalpy etotal ke pe
WARNING: New thermo_style command, previous thermo_modify settings will be lost (src/output.cpp:904)
thermo_modify colname c_Thot Temp_hot colname c_Tcold Temp_cold               colname f_hot E_hot colname f_cold E_cold               colname v_tdiff dTemp_step
thermo_modify flush yes
thermo ${tLog}
thermo 1000

# 2d - pre run
run ${tPrerun}
run 10000
PPPM initialization ...
  using 12-bit tables for long-range coulomb (src/kspace.cpp:342)
  G vector (1/distance) = 0.25629853
  grid = 50 54 48
  stencil order = 5
  estimated absolute RMS force accuracy = 0.00035481857
  estimated relative force accuracy = 1.0685256e-06
  using double precision FFTW3
  3d grid and FFT values/proc = 11780 5400
Generated 21 of 21 mixed pair_coeff terms from arithmetic mixing rule
Per MPI rank memory allocation (min/avg/max) = 19.16 | 19.32 | 19.4 Mbytes
   Step          Time           Temp         Temp_hot      Temp_cold        E_hot          E_cold       dTemp_step       Press         Enthalpy        TotEng         KinEng         PotEng    
     10000   10000          300.81516      307.06175      294.80928     -0             -0              12.25247      -299.6309       74825.025      76141.099      28710.568      47430.531    
     11000   11000          299.64645      343.80859      251.75825     -1034.5714      1045.9684      92.05034      -368.2732       74514.147      76131.719      28599.023      47532.695    
     12000   12000          299.30261      346.39794      247.31893     -1221.6298      1504.4909      99.079008      220.70888      76826.869      75857.446      28566.207      47291.24     
     13000   13000          300.14252      363.35959      255.07384     -1560.8288      1765.5863      108.28575      50.564262      76165.883      75943.789      28646.37       47297.419    
     14000   14000          299.70108      348.48081      249.68547     -1802.0843      2066.5125      98.795347      211.59715      76811.388      75881.986      28604.237      47277.749    
     15000   15000          302.29489      352.11732      253.27472     -2061.167       2338.3306      98.842605      658.79889      78762.816      75869.163      28851.797      47017.366    
     16000   16000          300.57073      349.92028      244.75256     -2256.816       2470.4171      105.16772     -28.28119       75821.662      75945.882      28687.239      47258.643    
     17000   17000          300.33948      356.28824      254.69034     -2425.7873      2718.6445      101.5979      -72.620989      75553.677      75872.651      28665.168      47207.484    
     18000   18000          300.56889      357.21163      262.60897     -2618.3583      2803.8288      94.602665      88.060371      76382.421      75995.632      28687.063      47308.569    
     19000   19000          298.663        351.86319      239.73833     -2682.0345      3084.3612      112.12486      6.2937417      75815.273      75787.629      28505.16       47282.469    
     20000   20000          298.72093      331.7083       247.42109     -2768.1931      3152.0567      84.287203      16.144329      75874.17       75803.259      28510.69       47292.569    
Loop time of 125.603 on 32 procs for 10000 steps with 32020 atoms

Performance: 6.879 ns/day, 3.489 hours/ns, 79.616 timesteps/s, 2.549 Matom-step/s
99.5% CPU use with 32 MPI tasks x 1 OpenMP threads

MPI task timing breakdown:
Section |  min time  |  avg time  |  max time  |%varavg| %total
---------------------------------------------------------------
Pair    | 79.437     | 84.344     | 89.801     |  29.3 | 67.15
Bond    | 1.6367     | 1.7525     | 2.0155     |   6.0 |  1.40
Kspace  | 20.702     | 26.098     | 30.354     |  51.9 | 20.78
Neigh   | 5.5628     | 5.6141     | 5.6526     |   0.9 |  4.47
Comm    | 4.3912     | 5.1562     | 5.9992     |  18.2 |  4.11
Output  | 0.0013951  | 0.0015785  | 0.0050519  |   1.6 |  0.00
Modify  | 1.8714     | 2.3438     | 2.76       |  17.0 |  1.87
Other   |            | 0.2922     |            |       |  0.23

Nlocal:        1000.62 ave        1035 max         951 min
Histogram: 1 0 2 2 4 8 3 7 3 2
Nghost:          11949 ave       12056 max       11858 min
Histogram: 5 5 4 0 1 3 5 3 5 1
Neighs:         611060 ave      641220 max      559000 min
Histogram: 1 0 1 3 3 6 2 8 6 2

Total # of neighbors = 19553935
Ave neighs/atom = 610.67879
Ave special neighs/atom = 10.738289
Neighbor list builds = 408
Dangerous builds = 0
unfix md2

# STEP 3 - md for tc caluclation
# 3a - impose nve
fix md3 all nve

# 3b - calculate and output thermal profile
compute ke all ke/atom
variable temp atom c_ke/(1.5*0.001987204)
compute layers all chunk/atom bin/1d x lower 0.05 units reduced
fix bins all ave/chunk ${nEvery} ${nRepeat} ${tLog} layers v_temp file Tprofile_x_lav.dat
fix bins all ave/chunk 10 ${nRepeat} ${tLog} layers v_temp file Tprofile_x_lav.dat
fix bins all ave/chunk 10 100 ${tLog} layers v_temp file Tprofile_x_lav.dat
fix bins all ave/chunk 10 100 1000 layers v_temp file Tprofile_x_lav.dat

# 3c - reset thermostats to zero energy accumulation
fix hot all langevin ${Thi} ${Thi} 100.0 57485 tally yes
fix hot all langevin 350 ${Thi} 100.0 57485 tally yes
fix hot all langevin 350 350 100.0 57485 tally yes
fix cold all langevin ${Tlo} ${Tlo} 100.0 12490 tally yes
fix cold all langevin 250 ${Tlo} 100.0 12490 tally yes
fix cold all langevin 250 250 100.0 12490 tally yes
fix_modify hot temp Thot
fix_modify cold temp Tcold

# 3c - compute average tdiff
fix ave all ave/time ${nEvery} ${nRepeat} ${tLog} v_tdiff ave running
fix ave all ave/time 10 ${nRepeat} ${tLog} v_tdiff ave running
fix ave all ave/time 10 100 ${tLog} v_tdiff ave running
fix ave all ave/time 10 100 1000 v_tdiff ave running

# 3d - time delay run
variable aTime equal time
variable start_time equal ${aTime}
variable start_time equal 20000
run ${tDelay}
run 1000
PPPM initialization ...
  using 12-bit tables for long-range coulomb (src/kspace.cpp:342)
  G vector (1/distance) = 0.25629853
  grid = 50 54 48
  stencil order = 5
  estimated absolute RMS force accuracy = 0.00035481857
  estimated relative force accuracy = 1.0685256e-06
  using double precision FFTW3
  3d grid and FFT values/proc = 11780 5400
Generated 21 of 21 mixed pair_coeff terms from arithmetic mixing rule
Per MPI rank memory allocation (min/avg/max) = 19.41 | 19.57 | 19.66 Mbytes
   Step          Time           Temp         Temp_hot      Temp_cold        E_hot          E_cold       dTemp_step       Press         Enthalpy        TotEng         KinEng         PotEng    
     20000   20000          298.72093      331.15559      247.42109     -0             -0              83.734496      16.144329      75874.17       75803.259      28510.69       47292.569    
     21000   21000          299.83969      342.32299      255.56194     -203.14888      153.49104      86.761043     -110.42855      75374.041      75859.078      28617.467      47241.612    
Loop time of 12.6671 on 32 procs for 1000 steps with 32020 atoms

Performance: 6.821 ns/day, 3.519 hours/ns, 78.944 timesteps/s, 2.528 Matom-step/s
99.5% CPU use with 32 MPI tasks x 1 OpenMP threads

MPI task timing breakdown:
Section |  min time  |  avg time  |  max time  |%varavg| %total
---------------------------------------------------------------
Pair    | 8.025      | 8.4524     | 9.0124     |   9.5 | 66.73
Bond    | 0.16225    | 0.17657    | 0.21926    |   2.6 |  1.39
Kspace  | 2.1063     | 2.6464     | 3.0829     |  16.9 | 20.89
Neigh   | 0.56452    | 0.56931    | 0.57181    |   0.2 |  4.49
Comm    | 0.46625    | 0.54515    | 0.63098    |   5.6 |  4.30
Output  | 0.00011556 | 0.00012796 | 0.00043764 |   0.0 |  0.00
Modify  | 0.19825    | 0.24704    | 0.29151    |   5.4 |  1.95
Other   |            | 0.03019    |            |       |  0.24

Nlocal:        1000.62 ave        1035 max         971 min
Histogram: 6 2 3 3 3 2 3 6 1 3
Nghost:        11951.4 ave       12085 max       11861 min
Histogram: 3 7 3 5 2 6 1 2 1 2
Neighs:         611110 ave      642310 max      579900 min
Histogram: 2 1 5 4 7 3 2 1 4 3

Total # of neighbors = 19555513
Ave neighs/atom = 610.72808
Ave special neighs/atom = 10.738289
Neighbor list builds = 41
Dangerous builds = 0

# 3f - calculate kappa
variable kappa_inst equal (0.5*(abs(f_hot)+abs(f_cold))/(time-${start_time})/(ly*lz)/2.0)*(lx/2.0)/v_tdiff*69478.5785
variable kappa_inst equal (0.5*(abs(f_hot)+abs(f_cold))/(time-20000)/(ly*lz)/2.0)*(lx/2.0)/v_tdiff*69478.5785
variable kappa equal (0.5*(abs(f_hot)+abs(f_cold))/(time-${start_time})/(ly*lz)/2.0)*(lx/2.0)/f_ave*69478.5785
variable kappa equal (0.5*(abs(f_hot)+abs(f_cold))/(time-20000)/(ly*lz)/2.0)*(lx/2.0)/f_ave*69478.5785

# 3e - thermo out
# dump dump_tc all custom 1000 dump.tc_x_ehex.lammpstrj id type mol x y z ix iy iz vx vy vz
thermo_style custom step time v_kappa v_kappa_inst c_Thot c_Tcold v_tdiff f_ave temp press enthalpy etotal ke pe
WARNING: New thermo_style command, previous thermo_modify settings will be lost (src/output.cpp:904)
thermo_modify colname v_kappa kappa colname v_kappa_inst kappa_inst               colname c_Thot Temp_hot colname c_Tcold Temp_cold               colname v_tdiff dTemp_step colname f_ave dTemp
thermo_modify flush yes
thermo ${tLog}
thermo 1000

# 2g - md run for kappa calculation
# optional traj dump
if "${boolDump} == 1" then     "dump tc_dump all atom ${tDump} dump.tc_x.lammpstrj"
run ${tTCrun}
run 1000000
PPPM initialization ...
  using 12-bit tables for long-range coulomb (src/kspace.cpp:342)
  G vector (1/distance) = 0.25629853
  grid = 50 54 48
  stencil order = 5
  estimated absolute RMS force accuracy = 0.00035481857
  estimated relative force accuracy = 1.0685256e-06
  using double precision FFTW3
  3d grid and FFT values/proc = 11780 5400
Generated 21 of 21 mixed pair_coeff terms from arithmetic mixing rule
Per MPI rank memory allocation (min/avg/max) = 19.66 | 19.82 | 19.91 Mbytes
   Step          Time          kappa        kappa_inst      Temp_hot      Temp_cold      dTemp_step       dTemp           Temp          Press         Enthalpy        TotEng         KinEng         PotEng    
     21000   21000          0              0              342.64949      255.56194      87.087547      95.40244       299.83969     -110.42855      75374.041      75859.078      28617.467      47241.612    
     22000   22000          0.20272607     0.20064024     346.35545      248.5315       97.823945      96.817443      298.6376       15.592181      75814.44       75745.954      28502.737      47243.217    
     23000   23000          0.1777672      0.18420884     346.23817      253.54075      92.697418      96.056433      299.12806     -211.76796      74947.86       75878.012      28549.547      47328.465    
     24000   24000          0.24942535     0.25027731     350.79336      255.06376      95.7296        96.056582      299.74276     -89.971415      75586.97       75982.153      28608.215      47373.937    
     25000   25000          0.2952488      0.31714164     346.50346      257.1616       89.341858      95.966599      299.50738      121.90407      76445.566      75910.125      28585.75       47324.375    
     26000   26000          0.34537509     0.31316443     349.97319      243.8815       106.09169      96.197276      297.83569      535.95037      78169.887      75815.824      28426.2        47389.624    
     27000   27000          0.32964052     0.34317348     347.77007      255.16107      92.609001      96.410942      299.35174      375.471        77530.279      75881.092      28570.895      47310.196    
     28000   28000          0.34451556     0.40829059     338.07277      256.8748       81.197962      96.22893       298.40633      638.35504      78738.54       75934.684      28480.664      47454.02     
     29000   29000          0.33671632     0.37770095     343.02665      256.81069      86.215961      96.710044      298.49306      440.25882      77662.261      75728.505      28488.941      47239.564    
     30000   30000          0.3259289      0.28502836     360.98021      250.36423      110.61598      96.734873      299.26721     -83.958536      75383.87       75752.643      28562.827      47189.815    
     31000   31000          0.3411593      0.31039699     359.84648      253.60266      106.24381      96.663814      298.12209      153.07823      76346.302      75673.935      28453.535      47220.4      
     32000   32000          0.32859667     0.32264376     347.06454      248.16249      98.902056      97.11033       298.63361     -213.79339      74776.676      75715.724      28502.355      47213.369    
     33000   33000          0.32830609     0.3101559      352.41224      249.6461       102.76614      97.084783      298.24675     -899.5304       71665.782      75616.803      28465.433      47151.37     
     34000   34000          0.33079871     0.32412428     351.30161      252.06628      99.235323      97.233079      298.68803      784.31183      79075.678      75630.734      28507.549      47123.185    
     35000   35000          0.31695258     0.32863647     337.06367      243.29015      93.773519      97.230313      296.79611      306.76544      76923.218      75575.807      28326.98       47248.828    
     36000   36000          0.32478713     0.32316522     358.43769      260.8437       97.593991      97.106632      297.8801       69.398559      76033.926      75729.105      28430.439      47298.667    
     37000   37000          0.32509784     0.36436256     349.14719      262.42614      86.721047      97.195054      298.97002      91.535989      76149.57       75747.515      28534.463      47213.052    
     38000   38000          0.32159178     0.3168605      360.86192      262.00188      98.860041      97.405607      298.85571     -330.9836       74452.207      75905.991      28523.553      47382.438    
     39000   39000          0.32012038     0.2767026      359.93052      247.18198      112.74854      97.456506      300.7945       294.92198      77190.951      75895.561      28708.596      47186.965    
     40000   40000          0.3187671      0.32284405     345.29145      248.97371      96.317742      97.549621      298.20567     -105.38573      75309.945      75772.832      28461.511      47311.321    
     41000   41000          0.31610077     0.35384116     348.74146      261.49223      87.24923       97.666226      299.89113      6.0577741      75938.208      75911.6        28622.377      47289.223    
     42000   42000          0.32122949     0.26134168     364.76317      244.4788       120.28437      97.859384      299.96726     -200.2098       74989.707      75869.091      28629.643      47239.449    
     43000   43000          0.31873507     0.31123123     347.49694      247.36642      100.13052      97.77319       299.17594      105.3795       76177.343      75714.483      28554.117      47160.366    
     44000   44000          0.31711734     0.32447943     337.98967      242.40778      95.581884      97.800882      300.24073      94.113104      76192.333      75778.959      28655.743      47123.216    
     45000   45000          0.31826612     0.32328253     348.89449      252.6514       96.243088      97.760042      298.28941     -59.871489      75516.27       75779.244      28469.504      47309.741    
     46000   46000          0.30720041     0.31912879     348.65609      254.54702      94.109069      97.763259      298.88367      431.70061      77736.265      75840.1        28526.222      47313.879    
     47000   47000          0.31282677     0.27290336     360.10034      248.07026      112.03007      97.732629      298.72917     -150.73391      74982.042      75644.113      28511.475      47132.638    
     48000   48000          0.31446062     0.26342643     363.24908      246.51866      116.73043      97.786107      300.10332     -168.62807      75104.34       75845.008      28642.628      47202.38     
     49000   49000          0.30617428     0.32017806     346.8753       253.39325      93.482051      97.757727      298.57874      45.650002      75830.686      75630.177      28497.118      47133.059    
     50000   50000          0.3118659      0.3103605      344.13412      246.14065      97.993468      97.520448      296.48078     -156.22094      74778.772      75464.944      28296.884      47168.06     
     51000   51000          0.31524319     0.38933387     335.98236      257.00553      78.976831      97.538525      296.25143     -319.40484      74141.148      75544.075      28274.994      47269.081    
     52000   52000          0.31378715     0.29782702     352.4148       249.64574      102.76906      97.541924      300.17447      622.11924      78393.433      75660.889      28649.419      47011.471    
     53000   53000          0.30810524     0.31750737     347.39761      252.77498      94.622632      97.510133      299.77694      281.03493      76864.175      75629.781      28611.478      47018.303    
     54000   54000          0.30650433     0.34180969     334.29803      246.88079      87.417232      97.486573      296.26845     -60.590999      75062.104      75328.238      28276.619      47051.62     
     55000   55000          0.31427178     0.28745139     353.10459      246.47173      106.63286      97.532664      296.23838     -351.239        73932.352      75475.105      28273.749      47201.356    
     56000   56000          0.31032768     0.31019794     348.76632      251.22756      97.53876       97.497982      298.06024     -415.75062      73673.884      75499.992      28447.632      47052.36     
     57000   57000          0.31141777     0.26933569     353.94633      241.25267      112.69366      97.465296      297.73754     -55.323877      75273.196      75516.196      28416.832      47099.364    
     58000   58000          0.31241422     0.28643838     356.18216      249.87863      106.30354      97.464878      300.44334      86.118392      76117.71       75739.451      28675.081      47064.37     
     59000   59000          0.30313986     0.28553439     347.59158      244.14036      103.45122      97.443079      298.54807     -8.1657283      75561.057      75596.924      28494.191      47102.733    
     60000   60000          0.30917753     0.3800997      342.64864      263.41502      79.233613      97.408997      300.33009      460.17878      77869.91       75848.66       28664.272      47184.388    
     61000   61000          0.31313315     0.2920346      359.01145      254.60551      104.40594      97.371191      301.67836     -400.69991      74048.141      75808.142      28792.954      47015.188    
     62000   62000          0.30950484     0.34815991     343.05402      256.54665      86.507368      97.311558      299.73847     -559.76818      73152.253      75610.931      28607.806      47003.126    
     63000   63000          0.31022714     0.32711046     346.17294      253.97763      92.195318      97.212815      299.55662      79.687374      76129.468      75779.456      28590.45       47189.006    
     64000   64000          0.31399517     0.33233481     347.65338      255.90772      91.745659      97.104283      299.02178      418.5009       77605.614      75767.426      28539.403      47228.023    
     65000   65000          0.31263174     0.33463606     338.40663      247.64488      90.761757      97.149946      300.08816     -18.153951      75501.171      75580.909      28641.181      46939.727    
     66000   66000          0.31714469     0.27989764     358.71026      248.5811       110.12916      97.19504       298.67196     -100.97322      75330.958      75774.464      28506.015      47268.449    
     67000   67000          0.31496479     0.30232507     346.28167      245.0182       101.26347      97.199705      297.44324      101.13542      76101.811      75657.593      28388.743      47268.85     
     68000   68000          0.31786556     0.29039984     350.22909      243.73816      106.49093      97.289395      297.60963      1022.8392      80154.342      75661.709      28404.624      47257.085    
     69000   69000          0.3184645      0.27691883     356.0613       244.10766      111.95364      97.348598      298.1744      -323.81063      74083.02       75505.298      28458.527      47046.771    
     70000   70000          0.31859907     0.3285317      347.4098       253.01411      94.395686      97.33856       298.18521     -409.59417      73955.637      75754.704      28459.559      47295.145    
     71000   71000          0.31871071     0.32886437     346.91599      252.53286      94.383132      97.390042      298.1051       173.04974      76483.449      75723.36       28451.913      47271.447    
     72000   72000          0.31336509     0.3912673      342.21219      264.20767      78.004516      97.396351      299.39303      157.81205      76388.009      75694.849      28574.837      47120.012    
     73000   73000          0.31686224     0.37763043     338.84797      257.17434      81.673631      97.337089      296.45345     -136.54483      75008.907      75608.655      28294.275      47314.38     
     74000   74000          0.31947381     0.30962354     353.67073      253.19293      100.47781      97.379796      299.57644     -422.84959      73945.701      75802.99       28592.342      47210.648    
     75000   75000          0.31671978     0.342912       343.25033      253.27473      89.975599      97.416436      298.00762     -707.2643       72571.092      75677.619      28442.609      47235.01     
     76000   76000          0.31626936     0.27398121     359.95771      247.5728       112.38491      97.358002      299.64069     -145.8223       75008.982      75649.479      28598.474      47051.006    
     77000   77000          0.32028764     0.34971534     349.23286      260.03308      89.199773      97.395354      301.43266     -807.21505      72325.813      75871.356      28769.504      47101.852    
     78000   78000          0.31704486     0.32257212     337.27387      241.56731      95.706561      97.37508       297.55714     -191.5454       74831.195      75672.522      28399.615      47272.908    
     79000   79000          0.32025403     0.26276734     363.50421      244.83904      118.66517      97.364371      298.75375     -381.22267      74129.449      75803.899      28513.822      47290.077    
     80000   80000          0.31833114     0.27923891     358.05906      247.01081      111.04825      97.411121      300.31539      13.553608      75903.235      75843.704      28662.868      47180.835    
     81000   81000          0.31521458     0.31893745     345.91921      249.63575      96.283458      97.420622      298.76344     -208.639        74836.549      75752.957      28514.747      47238.21     
     82000   82000          0.3148487      0.4264395      343.96079      272.06425      71.896544      97.378602      297.82421     -785.58851      72423.103      75873.655      28425.104      47448.551    
     83000   83000          0.31730498     0.31570578     351.34832      253.47306      97.875258      97.38197       298.29121     -224.26411      74781.798      75766.837      28469.676      47297.161    
     84000   84000          0.31994554     0.29532438     352.42835      246.89771      105.53063      97.409608      300.23755     -284.50652      74548.602      75798.244      28655.439      47142.805    
     85000   85000          0.3200253      0.34980196     343.75255      254.59109      89.161462      97.457463      298.23435      100.27739      76123.223      75682.773      28464.249      47218.524    
     86000   86000          0.31806617     0.3402605      344.29041      253.23065      91.05976       97.413817      298.5443      -314.73577      74223.224      75605.643      28493.831      47111.812    
     87000   87000          0.31890218     0.32272016     341.60832      245.32415      96.284164      97.436904      296.99645     -142.14283      75029.118      75653.454      28346.101      47307.353    
     88000   88000          0.31956148     0.3326992      343.0275       249.43095      93.596549      97.444464      298.50101     -246.0809       74519.993      75600.858      28489.7        47111.158    
     89000   89000          0.31978221     0.31042171     353.29381      252.88854      100.40527      97.466262      299.40723     -397.70689      74026.291      75773.145      28576.191      47196.954    
     90000   90000          0.31916718     0.31663189     353.82123      255.59556      98.225671      97.445421      298.14349     -625.47651      73028.828      75776.118      28455.577      47320.54     
     91000   91000          0.3179053      0.32106375     345.83769      249.36703      96.470657      97.429114      296.47187      287.206        76910.323      75648.823      28296.033      47352.79     
     92000   92000          0.32049028     0.31497009     349.34803      250.23447      99.113556      97.406405      299.39773      520.44806      77953.95       75667.978      28575.284      47092.694    
     93000   93000          0.31865375     0.30592671     346.21179      244.75714      101.45466      97.402554      298.93622     -75.137095      75215.932      75545.957      28531.237      47014.72     
     94000   94000          0.31460981     0.39476119     336.88393      259.29898      77.584951      97.350834      299.00437     -353.41774      74008.573      75560.895      28537.742      47023.153    
     95000   95000          0.31798933     0.28792078     359.68418      252.17958      107.5046       97.339141      297.74817     -481.23281      73570.66       75684.386      28417.846      47266.54     
     96000   96000          0.3178815      0.33673995     352.41008      260.50573      91.904349      97.356611      297.63387     -64.559154      75319.273      75602.837      28406.938      47195.9      
     97000   97000          0.31677325     0.28404539     349.97092      241.40647      108.56445      97.347968      299.31599     -392.37364      73799.997      75523.425      28567.483      46955.942    
     98000   98000          0.31609732     0.29718346     353.55623      249.9949       103.56133      97.364676      299.31846     -588.66103      73059.741      75645.326      28567.719      47077.606    
     99000   99000          0.31670813     0.30861091     343.18299      243.22911      99.953878      97.398378      300.04871      366.54804      77281.973      75671.979      28637.416      47034.562    
    100000   100000         0.31586582     0.38465094     339.23595      259.26729      79.968653      97.383176      297.71699      339.68153      77154.505      75662.517      28414.871      47247.646    
    101000   101000         0.31471745     0.34081427     342.00817      252.14625      89.861921      97.313399      298.57948     -25.19658       75634.149      75744.821      28497.189      47247.631    
    102000   102000         0.31843809     0.38457858     343.22901      262.67688      80.552134      97.283041      299.96221     -310.25515      74392.781      75755.519      28629.161      47126.358    
    103000   103000         0.31587927     0.30937445     345.43841      246.10796      99.330447      97.284962      296.63807     -370.52788      74025.098      75652.573      28311.896      47340.677    
    104000   104000         0.31415776     0.31298816     349.4003       251.76045      97.639851      97.276343      296.3028       53.117749      75786.397      75553.087      28279.897      47273.19     
    105000   105000         0.31463798     0.29758826     352.66923      249.89386      102.77537      97.206136      298.19788     -7.9364542      75448.757      75483.616      28460.768      47022.848    
    106000   106000         0.31733971     0.28824707     356.77943      249.76871      107.01072      97.200336      296.31503      254.41817      76564.939      75447.454      28281.064      47166.39     
    107000   107000         0.31763963     0.2782344      361.78731      250.84468      110.94263      97.179491      298.70468      81.845568      76078.688      75719.197      28509.139      47210.058    
    108000   108000         0.31585339     0.33402158     342.03448      250.12352      91.910954      97.19776       298.05114     -491.57924      73363.673      75522.844      28446.763      47076.081    
    109000   109000         0.31696456     0.3147333      359.98784      262.10122      97.886611      97.197541      298.95742     -418.98238      73794.856      75635.159      28533.261      47101.898    
    110000   110000         0.31619476     0.31159182     345.65399      247.05284      98.601149      97.165784      295.38477     -148.8127       74652.375      75306.007      28192.278      47113.729    
    111000   111000         0.31593662     0.35497739     344.04991      257.57283      86.477077      97.16318       298.31452     -496.67926      73252.171      75433.743      28471.901      46961.842    
    112000   112000         0.31839207     0.26959285     363.03184      248.28271      114.74913      97.161797      295.96482     -204.66518      74572.92       75471.874      28247.639      47224.235    
    113000   113000         0.31613131     0.3591288      337.14253      251.62507      85.517464      97.148822      295.69656      223.83186      76337.931      75354.791      28222.036      47132.756    
    114000   114000         0.31731875     0.26093247     360.70648      242.59793      118.10855      97.121125      295.72506      348.53738      76964.172      75433.286      28224.756      47208.53     
    115000   115000         0.31733069     0.30959887     351.33045      251.74963      99.580818      97.154512      298.10949      355.22346      77057.385      75497.132      28452.332      47044.8      
    116000   116000         0.31640757     0.31556569     345.00335      247.61429      97.389059      97.129931      296.709       -119.19438      74749.377      75272.916      28318.666      46954.25     
    117000   117000         0.31384314     0.3174228      342.82597      246.7759       96.050063      97.145599      295.74267     -442.47285      73284.736      75228.216      28226.437      47001.779    
    118000   118000         0.31335302     0.31735421     346.84312      250.95014      95.892978      97.117429      296.36049      11.514403      75245.617      75195.042      28285.403      46909.639    
    119000   119000         0.31679837     0.32638808     356.58343      262.35674      94.226693      97.079001      297.73551     -176.26302      74622.912      75397.115      28416.639      46980.476    
    120000   120000         0.31293918     0.40203078     333.3395       257.76408      75.575413      97.091205      298.30901     -214.08781      74349.689      75290.03       28471.375      46818.655    
    121000   121000         0.31613771     0.29727631     353.41846      250.19616      103.2223       97.063852      297.04804      478.73511      77522.878      75420.123      28351.025      47069.098    
    122000   122000         0.31522232     0.31672111     358.05073      261.4208       96.629931      97.089378      297.18465     -167.1229       74794.005      75528.061      28364.063      47163.998    
    123000   123000         0.3165192      0.32705411     345.22226      251.2755       93.946762      97.073651      297.58304     -541.05637      72978.792      75355.283      28402.087      46953.196    
    124000   124000         0.31560451     0.31652272     346.84723      250.06281      96.784411      97.065991      294.84458     -433.15927      73527.934      75430.506      28140.721      47289.785    
    125000   125000         0.31618524     0.29731824     348.8693       245.62808      103.24122      97.080743      296.90161     -29.975896      75366.57       75498.233      28337.049      47161.185    
    126000   126000         0.31530472     0.33636351     338.79468      247.80268      90.991995      97.069232      296.36239      373.09817      76976.219      75337.454      28285.584      47051.87     
    127000   127000         0.31387061     0.32809498     346.85997      254.03988      92.820094      97.026628      297.01077     -48.152265      75263.853      75475.353      28347.467      47127.885    
    128000   128000         0.31534528     0.29096424     350.53225      245.42433      105.10792      96.98146       297.70026      67.433967      75764.583      75468.392      28413.274      47055.119    
    129000   129000         0.31807897     0.28075257     357.93009      248.03659      109.8935       96.997562      296.16499      186.22488      76279.289      75461.33       28266.744      47194.586    
    130000   130000         0.31587252     0.35461892     350.45385      264.05094      86.402906      97.00149       298.94696      190.30595      76367.903      75532.019      28532.263      46999.756    
    131000   131000         0.31771722     0.32887696     340.77469      247.05029      93.724404      97.01645       299.05457     -546.41523      73097.664      75497.692      28542.533      46955.16     
    132000   132000         0.31551613     0.32398922     344.53119      250.05869      94.472497      97.009529      299.5439       107.02261      75918.711      75448.634      28589.236      46859.398    
    133000   133000         0.31752979     0.28547452     355.07178      247.19129      107.88048      96.989732      298.77468     -674.47814      72471.602      75434.123      28515.82       46918.303    
    134000   134000         0.31439095     0.30657261     354.04125      254.58458      99.456666      96.983357      297.55285     -699.50009      72451.154      75523.579      28399.205      47124.374    
    135000   135000         0.3157332      0.32257398     351.11817      256.19701      94.921151      96.977745      297.00676     -72.816032      75207.996      75527.827      28347.084      47180.743    
    136000   136000         0.31453188     0.32819112     344.25277      251.30631      92.946455      96.982861      296.7305       566.35475      77939.315      75451.706      28320.718      47130.988    
    137000   137000         0.31482707     0.34548037     342.74192      254.34587      88.396052      97.002779      297.35175      475.74562      77428.499      75338.875      28380.012      46958.863    
    138000   138000         0.31399224     0.34234344     341.35648      252.36638      88.990105      97.025261      297.36815     -372.59805      73653.468      75290.036      28381.577      46908.46     
    139000   139000         0.31456343     0.37062111     338.60551      256.24524      82.360273      97.037522      296.56709     -172.16842      74707.916      75464.134      28305.121      47159.012    
    140000   140000         0.31609558     0.27682444     357.93063      247.11052      110.82011      97.052022      298.15564     -441.93713      73810.12       75751.247      28456.737      47294.51     
    141000   141000         0.31647437     0.30023177     349.03875      246.72556      102.31319      97.062105      299.16092      102.24943      76114.149      75665.037      28552.683      47112.353    
    142000   142000         0.31602085     0.29747703     347.57333      244.42647      103.14685      97.09429       295.13558      22.061666      75623.524      75526.622      28168.494      47358.128    
    143000   143000         0.31477169     0.31470498     347.97578      250.82346      97.15232       97.13173       299.84447      34.04831       75877.276      75727.725      28617.923      47109.801    
    144000   144000         0.31678247     0.33639475     341.25337      249.75934      91.494029      97.158506      298.4623       432.95796      77671.36       75769.672      28486.005      47283.668    
    145000   145000         0.31544957     0.33696586     344.6797       253.71998      90.959721      97.163932      300.58621     -179.87109      74885.01       75675.06       28688.716      46986.344    
    146000   146000         0.31371998     0.30362591     351.83859      251.4263       100.41229      97.181485      300.2049      -86.144972      75430.771      75809.147      28652.323      47156.824    
    147000   147000         0.31154342     0.31985735     354.94098      260.31751      94.623464      97.148611      300.29866     -370.5312       74092.612      75720.101      28661.272      47058.829    
    148000   148000         0.3131774      0.30584672     344.3862       244.8723       99.5139        97.184536      298.37445     -443.30545      73889.955      75837.093      28477.621      47359.472    
    149000   149000         0.31348638     0.29139104     352.57211      248.00369      104.56841      97.198156      298.93274      543.05157      78319.13       75933.876      28530.905      47402.971    
    150000   150000         0.31413        0.31902632     349.58801      253.84684      95.741167      97.233478      300.29634     -111.93268      75296.504      75788.148      28661.051      47127.097    
    151000   151000         0.31228932     0.29365139     350.65712      247.21296      103.44416      97.27044       298.28855      345.47918      77209.597      75692.144      28469.422      47222.721    
    152000   152000         0.31075178     0.38051622     336.21779      256.74818      79.469613      97.310713      297.36077     -262.47977      74562.458      75715.351      28380.872      47334.48     
    153000   153000         0.30961445     0.30841651     343.3568       245.68731      97.66949       97.291594      298.53803      883.62356      79401.431      75520.277      28493.233      47027.045    
    154000   154000         0.30970235     0.34101106     338.60035      250.25582      88.344527      97.275533      297.34157     -383.34818      74036.676      75720.462      28379.04       47341.422    
    155000   155000         0.30886497     0.33874524     342.47033      253.77607      88.694256      97.274732      298.49782      220.6239       76505.356      75536.307      28489.395      47046.912    
    156000   156000         0.31142228     0.28945813     354.08882      249.41631      104.6725       97.290108      297.36026     -313.56878      74175.978      75553.271      28380.824      47172.448    
    157000   157000         0.31079709     0.26461153     364.87999      250.60435      114.27564      97.293867      299.38129      298.50784      77041.098      75729.957      28573.716      47156.242    
    158000   158000         0.30887036     0.33406963     345.55174      255.5543       89.997438      97.339902      299.79595      258.01127      76779.146      75645.879      28613.292      47032.588    
    159000   159000         0.30806888     0.32548483     345.98687      253.86836      92.118516      97.326217      298.46528     -494.1748       73427.398      75597.97       28486.29       47111.68     
    160000   160000         0.30884903     0.33998868     338.82667      250.41162      88.415054      97.329486      298.19174     -154.28318      74911.802      75589.463      28460.182      47129.281    
    161000   161000         0.3091139      0.28855343     351.03224      246.7598       104.27245      97.336845      300.74257      68.867561      75890.425      75587.937      28703.64       46884.296    
    162000   162000         0.30786153     0.31701716     345.90443      251.36598      94.538447      97.349968      298.78053     -71.700079      75273.276      75588.206      28516.378      47071.828    
    163000   163000         0.30741491     0.29704886     350.06678      249.28274      100.78403      97.38559       296.49666      5.1505837      75576.329      75553.706      28298.4        47255.306    
    164000   164000         0.30808625     0.32053422     343.24137      249.61172      93.629653      97.412682      298.27066      123.24142      76203.713      75662.398      28467.714      47194.683    
    165000   165000         0.30891987     0.30623906     354.31851      256.06396      98.254549      97.401895      298.02329      143.33946      76405.467      75775.875      28444.104      47331.771    
    166000   166000         0.30814084     0.32199646     340.14973      246.93492      93.21481       97.406233      296.87677     -353.86358      74044.289      75598.569      28334.678      47263.891    
    167000   167000         0.30808401     0.32077706     343.99462      250.41565      93.578962      97.43441       295.65924     -60.903475      75365.605      75633.112      28218.474      47414.638    
    168000   168000         0.30956773     0.30289283     347.05508      247.49478      99.560303      97.413583      297.55646     -180.79953      74923.278      75717.406      28399.55       47317.857    
    169000   169000         0.30904397     0.28312437     362.18048      255.84191      106.33857      97.419929      299.94664     -114.24348      75184.177      75685.97       28627.674      47058.296    
    170000   170000         0.30844801     0.29484737     350.75973      248.84785      101.91188      97.418202      297.46991      300.4518       76828.287      75508.608      28391.288      47117.32     
    171000   171000         0.30801995     0.30268181     345.21801      246.07673      99.141282      97.423112      297.41512     -91.313498      75045.019      75446.097      28386.06       47060.037    
    172000   172000         0.3081843      0.30004237     348.9137       248.85603      100.05766      97.414237      298.08613      610.40751      78362.932      75681.83       28450.102      47231.728    
    173000   173000         0.31016483     0.30093057     347.66687      247.25107      100.41579      97.426204      299.19419     -36.659998      75619.122      75780.144      28555.859      47224.286    
    174000   174000         0.31030698     0.31460877     349.95709      253.85328      96.103813      97.436103      298.44861     -440.10752      73800.157      75733.248      28484.698      47248.55     
    175000   175000         0.30905416     0.33507852     341.06652      251.21339      89.853135      97.419351      298.28994      499.65553      77892.877      75698.232      28469.554      47228.678    
    176000   176000         0.30860109     0.29322344     357.64381      255.14389      102.49992      97.392329      299.48532      29.303625      75899.942      75771.231      28583.645      47187.586    
    177000   177000         0.31031328     0.25217547     366.31012      246.4723       119.83781      97.385962      300.05815      424.09811      77614.825      75752.052      28638.317      47113.735    
    178000   178000         0.30875402     0.35631837     340.59466      256.19132      84.403348      97.405901      299.49563      427.97031      77461.508      75581.727      28584.629      46997.098    
    179000   179000         0.30902999     0.27982406     350.46709      242.9061       107.56099      97.395568      297.71093     -120.24707      75164.478      75692.641      28414.292      47278.349    
    180000   180000         0.30899754     0.28833718     350.87212      246.49409      104.37803      97.399051      299.23208     -205.46099      74684.791      75587.241      28559.475      47027.766    
    181000   181000         0.30767581     0.33631786     342.44905      253.3245       89.124544      97.421294      299.636        468.05706      77904.197      75848.343      28598.026      47250.317    
    182000   182000         0.30668214     0.26290969     356.1527       242.52046      113.63224      97.413621      299.45992     -294.05937      74393.073      75684.675      28581.22       47103.454    
    183000   183000         0.30606235     0.31609813     353.17604      258.87281      94.303224      97.395427      298.28641      88.021646      76117.89       75731.272      28469.217      47262.054    
    184000   184000         0.30793861     0.2925427      355.27943      252.7367       102.54273      97.415935      300.51895      286.36066      77280.518      76022.731      28682.297      47340.435    
    185000   185000         0.30831196     0.25861639     361.22218      245.05886      116.16333      97.439426      298.62452      15.687839      75781.627      75712.721      28501.488      47211.233    
    186000   186000         0.30790028     0.29099495     356.72703      253.62779      103.09924      97.438553      298.75548      256.39466      76857.112      75730.946      28513.987      47216.959    
    187000   187000         0.3075414      0.28721759     344.27506      239.94059      104.33447      97.439542      298.38168     -94.809454      75162.26       75578.693      28478.311      47100.382    
    188000   188000         0.30731701     0.30301975     345.89245      247.04925      98.843203      97.461065      298.92106      17.403737      75901.877      75825.434      28529.79       47295.644    
    189000   189000         0.30757015     0.30548887     352.34352      254.23562      98.107895      97.444017      298.84882      383.51466      77431.173      75746.655      28522.895      47223.76     
    190000   190000         0.30813295     0.29957778     345.3355       245.12436      100.21113      97.428819      297.23232     -850.66624      71932.479      75668.874      28368.613      47300.261    
    191000   191000         0.3072734      0.31193857     343.55504      247.56157      95.993469      97.450888      300.43482     -112.39137      75417.57       75911.228      28674.267      47236.961    
    192000   192000         0.30613502     0.27140913     359.89163      249.96229      109.92934      97.459701      300.24921     -112.34354      75386.914      75880.363      28656.552      47223.81     
    193000   193000         0.3066013      0.36072408     344.96847      262.14651      82.821956      97.442096      300.7877       538.69396      78295.38       75929.267      28707.947      47221.32     
    194000   194000         0.30748941     0.30922194     344.82456      247.93203      96.892527      97.43846       300.15127     -74.105958      75568.888      75894.384      28647.204      47247.18     
    195000   195000         0.30752475     0.28569399     352.64191      247.75076      104.89115      97.445066      299.04107      142.04541      76597.626      75973.717      28541.245      47432.473    
    196000   196000         0.30630207     0.3405415      341.5329       253.87556      87.657335      97.455954      298.54352      220.93272      76916.929      75946.523      28493.757      47452.766    
    197000   197000         0.30662427     0.28223084     355.95043      250.061        105.88943      97.465412      300.19597      62.009616      76184.811      75912.445      28651.471      47260.974    
    198000   198000         0.30786411     0.30666383     348.5439       250.69797      97.845937      97.464462      299.14479     -195.27515      74937.177      75794.887      28551.143      47243.744    
    199000   199000         0.30731863     0.3284277      351.93218      260.73407      91.198108      97.462313      298.97465     -435.02312      74002.042      75912.801      28534.905      47377.895    
    200000   200000         0.30781578     0.3243949      339.16309      246.67141      92.491678      97.473326      299.51657      160.96613      76529.224      75822.21       28586.627      47235.583    
    201000   201000         0.30764132     0.31430674     345.60712      250.19187      95.415247      97.482532      299.41563     -155.4538       75172.815      75855.617      28576.993      47278.624    
    202000   202000         0.30842366     0.27920258     357.22468      249.51358      107.71109      97.506188      301.65969      361.5215       77657.494      76069.577      28791.172      47278.405    
    203000   203000         0.30753069     0.29020722     358.81615      255.49889      103.31727      97.497315      300.00481      303.13883      77300.645      75969.163      28633.227      47335.937    
    204000   204000         0.30715835     0.32295323     340.38221      247.6323       92.749907      97.51935       300.80929     -469.42463      73901.471      75963.332      28710.008      47253.324    
    205000   205000         0.30788421     0.28338416     360.01261      254.08233      105.93028      97.500822      301.95355      17.735892      76209.474      76131.572      28819.219      47312.354    
    206000   206000         0.30619627     0.29113274     351.71095      249.15047      102.56048      97.514942      299.88385      462.23794      78142.508      76112.213      28621.681      47490.531    
    207000   207000         0.30722776     0.27838474     358.23704      250.63438      107.60266      97.500754      301.27957      401.01842      77788.104      76026.704      28754.892      47271.812    
    208000   208000         0.30819301     0.31063236     347.18415      250.43855      96.7456        97.511342      301.16222     -185.28295      75314.498      76128.32       28743.692      47384.627    
    209000   209000         0.3079873      0.28630225     351.18153      246.26806      104.91347      97.526631      300.49162      229.41191      77024.247      76016.598      28679.688      47336.909    
    210000   210000         0.30852514     0.32631995     343.68854      251.45937      92.22917       97.548671      302.46302     -49.384874      75956.667      76173.581      28867.844      47305.737    
    211000   211000         0.30836518     0.30370635     351.46267      252.40284      99.059837      97.563223      301.85382     -104.7735       75606.612      76066.81       28809.701      47257.109    
    212000   212000         0.30691827     0.30485228     346.56184      248.35315      98.208685      97.547601      299.67062      189.6461       76781.364      75948.378      28601.331      47347.048    
    213000   213000         0.3080046      0.34658904     344.95451      258.27659      86.677922      97.536263      300.20604     -99.01023       75557.622      75992.506      28652.432      47340.073    
    214000   214000         0.30825308     0.27770687     363.95292      255.69196      108.26096      97.53289       301.43654     -825.67323      72479.862      76106.479      28769.874      47336.605    
    215000   215000         0.30862026     0.25114083     363.14372      243.28407      119.85965      97.536214      301.01664      110.3845       76360.426      75875.583      28729.797      47145.786    
    216000   216000         0.30842395     0.26280831     359.74961      245.29441      114.4552       97.527375      299.23143     -112.22705      75435.29       75928.227      28559.413      47368.814    
    217000   217000         0.30928532     0.365479       340.15356      257.61392      82.539639      97.536169      297.84611      195.2629       76806.864      75949.208      28427.194      47522.013    
    218000   218000         0.30808064     0.27037168     354.58584      243.44458      111.14126      97.537609      299.71706     -287.73244      74591.83       75855.642      28605.763      47249.879    
    219000   219000         0.30882361     0.26796673     363.55488      251.13471      112.42017      97.547157      300.47744      389.40511      77573.81       75863.42       28678.335      47185.084    
    220000   220000         0.30804688     0.32343572     349.9941       257.07623      92.91787       97.559688      301.79274      605.22225      78489.699      75831.372      28803.871      47027.501    
    221000   221000         0.30840391     0.40591874     336.98997      262.8743       74.115661      97.550436      298.87603      406.66908      77700.829      75914.61       28525.492      47389.118    
    222000   222000         0.30871094     0.29942936     340.68141      240.09801      100.5834       97.559296      299.37015      267.83908      77004.832      75828.398      28572.652      47255.746    
    223000   223000         0.30833067     0.34843725     337.92744      251.60732      86.320122      97.548342      299.61919     -676.41353      72907.762      75878.783      28596.421      47282.362    
    224000   224000         0.30968294     0.24975955     360.11039      239.16194      120.94845      97.545026      298.4029       607.23411      78407.991      75740.828      28480.336      47260.492    
    225000   225000         0.30953861     0.31694504     349.78887      254.51431      95.274558      97.554225      299.53456      601.6474       78312.891      75670.266      28588.344      47081.921    
    226000   226000         0.30756835     0.31319245     350.15745      254.33237      95.825077      97.577306      298.94558     -275.14796      74463.592      75672.128      28532.13       47139.998    
    227000   227000         0.30746361     0.28527394     356.88275      251.73012      105.15262      97.563749      298.31917     -179.45198      74721.726      75509.936      28472.345      47037.591    
    228000   228000         0.30872614     0.31741392     351.16348      256.2571       94.906378      97.577114      298.82983     -494.70804      73558.225      75731.139      28521.083      47210.056    
    229000   229000         0.30885732     0.33611615     339.68496      250.01506      89.669906      97.583906      298.37199     -491.64345      73459.726      75619.179      28477.385      47141.794    
    230000   230000         0.30906782     0.32819473     346.89109      254.99519      91.895898      97.582949      299.37354     -110.4421       75281.331      75766.427      28572.976      47193.451    
    231000   231000         0.30903096     0.31655898     341.8612       246.60684      95.254359      97.574763      296.78967     -142.84017      74992.024      75619.423      28326.365      47293.058    
    232000   232000         0.3076517      0.32398525     343.89227      251.24382      92.648453      97.567258      298.84723     -841.93782      71858.617      75556.673      28522.743      47033.93     
    233000   233000         0.30844092     0.27575961     353.66961      244.5369       109.13271      97.569392      297.93766      669.90408      78718.02       75775.59       28435.932      47339.658    
    234000   234000         0.30935319     0.29660032     359.54691      257.79752      101.74939      97.554844      299.98288     -50.607238      75595.699      75817.982      28631.133      47186.849    
    235000   235000         0.30924757     0.30289211     348.17629      248.59024      99.586045      97.539416      298.76745     -382.96718      74015.121      75697.234      28515.13       47182.104    
    236000   236000         0.30951596     0.28639244     350.4488       244.997        105.4518       97.573636      299.18881      544.338        78118.48       75727.576      28555.345      47172.231    
    237000   237000         0.30840883     0.35852198     343.94761      260.02327      83.924335      97.561144      298.36372      194.66495      76577.953      75722.923      28476.596      47246.326    
    238000   238000         0.30966879     0.26124472     360.65137      245.00462      115.64675      97.562634      301.10125     -268.70704      74801.568      75981.814      28737.873      47243.941    
    239000   239000         0.30847748     0.31010829     351.17839      254.11232      97.066074      97.579227      300.72772      362.79362      77495.778      75902.275      28702.223      47200.052    
    240000   240000         0.3080488      0.28274272     354.039        247.70489      106.33411      97.598802      300.29785     -781.16491      72347.133      75778.255      28661.195      47117.06     
    241000   241000         0.30797535     0.28171273     356.05719      249.36887      106.68832      97.590466      298.3372       158.62235      76429.368      75732.649      28474.065      47258.584    
    242000   242000         0.30623311     0.39685424     332.3954       257.09673      75.298679      97.58122       298.83804      160.25898      76505.671      75801.763      28521.866      47279.897    
    243000   243000         0.30777313     0.29781499     352.49184      251.64859      100.84324      97.580414      299.34424      334.64249      77220.334      75750.479      28570.179      47180.299    
    244000   244000         0.30720652     0.36917121     335.13444      253.93984      81.194601      97.571852      298.11464      298.76938      77123.231      75810.941      28452.823      47358.118    
    245000   245000         0.3089023      0.28107927     353.3817       246.13667      107.24503      97.585406      299.44637      18.953267      75948.179      75864.93       28579.927      47285.003    
    246000   246000         0.30706825     0.29109303     349.72215      246.76772      102.95443      97.598225      298.80667      258.61391      76779.018      75643.104      28518.873      47124.231    
    247000   247000         0.30690308     0.29708429     351.6252       250.79502      100.83018      97.604309      299.51682     -716.21921      72563.291      75709.151      28586.651      47122.501    
    248000   248000         0.30723789     0.31220363     346.21148      250.17594      96.035537      97.587715      299.22632     -244.54792      74818.972      75893.103      28558.925      47334.178    
    249000   249000         0.30742096     0.29444374     356.28586      254.37261      101.91325      97.611169      299.00591      310.06784      77242.777      75880.862      28537.889      47342.973    
    250000   250000         0.30744531     0.28571598     352.96215      247.92749      105.03466      97.611118      301.71999     -284.7706       74610.569      75861.371      28796.927      47064.444    
    251000   251000         0.30719367     0.30954576     351.19804      254.33197      96.866075      97.607748      300.87342     -18.64142       75706.782      75788.661      28716.128      47072.533    
    252000   252000         0.30736596     0.31992384     342.77536      248.99724      93.778122      97.609562      299.51978      651.45636      78692.809      75831.407      28586.934      47244.474    
    253000   253000         0.30773725     0.28552633     356.30513      251.0841       105.22104      97.626711      301.18473      232.73055      76970.618      75948.392      28745.841      47202.551    
    254000   254000         0.30706454     0.28812691     345.72131      241.66679      104.05452      97.637154      297.83556      190.49191      76616.315      75779.614      28426.188      47353.427    
    255000   255000         0.30681142     0.26969159     360.8354       249.77341      111.06199      97.62507       300.64333     -598.03857      73165.715      75792.489      28694.169      47098.32     
    256000   256000         0.30683711     0.28045769     357.29033      250.47582      106.8145       97.631439      299.64634      1108.4588      80747.556      75878.856      28599.013      47279.843    
    257000   257000         0.30729878     0.31058656     344.714        248.11365      96.600346      97.63387       300.38571     -200.85622      75007.915      75890.139      28669.581      47220.558    
    258000   258000         0.30803747     0.29851236     342.03426      241.28775      100.74651      97.631233      299.39907      78.250993      76201.759      75858.056      28575.413      47282.643    
    259000   259000         0.30829002     0.27257441     358.42274      247.9714       110.45134      97.655474      300.38736     -345.20482      74425.737      75941.985      28669.737      47272.248    
    260000   260000         0.30694877     0.2688412      359.35124      247.85161      111.49964      97.656999      299.72251     -72.622166      75532.633      75851.613      28606.283      47245.33     
    261000   261000         0.30765717     0.30876876     351.2558       253.95241      97.303388      97.654953      301.50097      480.94045      77964.199      75851.757      28776.023      47075.733    
    262000   262000         0.30805445     0.26441491     356.3089       242.52425      113.78465      97.665715      298.38326      119.38221      76393.049      75868.684      28478.462      47390.223    
    263000   263000         0.3077584      0.30469167     354.42147      255.78688      98.634591      97.651725      299.2964       169.97837      76660.528      75913.93       28565.614      47348.316    
    264000   264000         0.30829779     0.29911607     355.84275      255.18698      100.65577      97.658035      299.55537      529.3277       78314.39       75989.416      28590.331      47399.085    
    265000   265000         0.30794107     0.35531741     339.00267      254.36509      84.637578      97.658962      300.56645      230.45631      77092.837      76080.6        28686.831      47393.769    
    266000   266000         0.30797607     0.29708979     348.2406       247.00018      101.24042      97.661793      302.33174      150.63235      76757.412      76095.787      28855.314      47240.473    
    267000   267000         0.30736777     0.35318822     339.43891      254.4548       84.984101      97.652997      300.77862     -263.56765      74827.245      75984.918      28707.08       47277.837    
    268000   268000         0.30792413     0.32579825     345.15629      252.85665      92.299634      97.657365      301.16549      479.64387      78153.473      76046.725      28744.004      47302.721    
    269000   269000         0.30740161     0.30392008     350.81627      252.03463      98.781647      97.662879      300.69282      357.18438      77581.722      76012.856      28698.891      47313.964    
    270000   270000         0.30833222     0.27609382     360.57494      251.49408      109.08086      97.675656      300.7598      -148.03664      75360.676      76010.899      28705.284      47305.615    
    271000   271000         0.30690461     0.30288934     347.64296      248.66067      98.982299      97.687302      299.01318      104.39567      76420.996      75962.457      28538.582      47423.875    
    272000   272000         0.30665359     0.31432047     350.11892      254.81865      95.300269      97.682946      300.93881     -107.92682      75440.878      75914.926      28722.37       47192.556    
    273000   273000         0.30643017     0.38555283     333.94982      256.32153      77.628291      97.672523      300.42601     -297.95604      74551.214      75859.931      28673.426      47186.504    
    274000   274000         0.3063644      0.34182527     339.06029      251.52494      87.535353      97.66734       299.26066     -509.29485      73596.004      75832.988      28562.202      47270.786    
    275000   275000         0.30731121     0.30985217     346.69835      249.84355      96.854796      97.655625      299.57045     -141.89138      75354.688      75977.92       28591.77       47386.15     
    276000   276000         0.3075712      0.27662851     364.32346      255.7413       108.58217      97.658435      299.81305     -764.39963      72745.394      76102.878      28614.924      47487.955    
    277000   277000         0.30782016     0.30692627     354.92271      256.95922      97.963487      97.679006      299.99001     -343.95158      74355.903      75866.646      28631.813      47234.833    
    278000   278000         0.30716702     0.300206       350.30888      250.35916      99.949722      97.68466       298.37168      141.82017      76421.677      75798.758      28477.356      47321.402    
    279000   279000         0.30793359     0.28933094     357.72826      253.75478      103.97349      97.69232       300.65394      632.26719      78741.908      75964.791      28695.181      47269.61     
    280000   280000         0.30748821     0.33603112     353.36466      263.95226      89.412403      97.712203      299.71566     -870.32294      72117.564      75940.297      28605.629      47334.668    
    281000   281000         0.30754551     0.3086327      352.46057      255.08415      97.376421      97.720653      299.65668     -555.11618      73327.38       75765.625      28599.999      47165.626    
    282000   282000         0.30763985     0.28830259     349.51039      245.24429      104.2661       97.71227       300.47139     -232.15877      74868.887      75888.601      28677.757      47210.844    
    283000   283000         0.30745657     0.31421362     343.17398      247.56265      95.611327      97.712603      297.00612     -314.24913      74301.846      75682.127      28347.023      47335.104    
    284000   284000         0.30701613     0.31527087     347.89837      252.74682      95.151552      97.709892      299.33729     -29.91656       75585.867      75717.27       28569.516      47147.753    
    285000   285000         0.30720526     0.27582038     359.22289      250.37334      108.84955      97.729201      298.92619     -258.32219      74541.984      75676.616      28530.28       47146.336    
    286000   286000         0.3061929      0.27799825     349.20069      241.55548      107.64521      97.733094      296.82239      460.27259      77547.359      75525.697      28329.488      47196.209    
    287000   287000         0.30560482     0.45094197     326.35536      260.13199      66.223376      97.717371      297.56637      722.63555      78711.08       75537.037      28400.495      47136.542    
    288000   288000         0.30716027     0.27157234     358.31433      247.80899      110.50534      97.702066      297.54397      149.66728      76302.764      75645.379      28398.358      47247.021    
    289000   289000         0.30713816     0.28668798     351.05514      246.38417      104.67098      97.701666      298.35334     -362.63608      73968.647      75561.459      28475.606      47085.853    
    290000   290000         0.30713911     0.28705416     351.18645      246.63726      104.54919      97.712333      297.89667      128.68959      76178.506      75613.261      28432.02       47181.241    
    291000   291000         0.30637074     0.28217122     346.44022      240.34738      106.09284      97.712809      296.08819      309.97031      76863.219      75501.731      28259.414      47242.317    
    292000   292000         0.30667202     0.29368262     345.31225      243.2735       102.03874      97.716788      297.4346      -510.90873      73332.078      75576.15       28387.919      47188.231    
    293000   293000         0.30691098     0.27912909     360.3561       252.90362      107.45248      97.725772      298.48747      295.82625      77038.785      75739.423      28488.408      47251.015    
    294000   294000         0.30726523     0.2999574      351.58185      251.46639      100.11546      97.734367      298.10805     -564.95171      73166.951      75648.397      28452.195      47196.202    
    295000   295000         0.30758202     0.30540706     338.72098      240.29342      98.427563      97.731567      298.34799      118.88384      76220.908      75698.733      28475.095      47223.638    
    296000   296000         0.3083142      0.27470232     358.80898      249.12168      109.68729      97.729374      300.18705     -696.62306      72752.963      75812.752      28650.62       47162.132    
    297000   297000         0.3069885      0.34739688     350.0916       263.7226       86.369008      97.737614      300.18862     -359.71691      74136.492      75716.482      28650.77       47065.712    
    298000   298000         0.30654948     0.28259689     352.14218      246.12467      106.01751      97.733712      298.27593      195.32875      76622.978      75765.033      28468.217      47296.815    
    299000   299000         0.30689977     0.27940493     353.7868       246.42947      107.35733      97.739291      298.52388      774.50799      79007.063      75605.179      28491.883      47113.297    
    300000   300000         0.30691898     0.34251425     336.94592      249.36392      87.582005      97.739428      299.03009      611.3671       78513.034      75827.717      28540.197      47287.52     
    301000   301000         0.30729043     0.37266856     328.99796      248.42978      80.568177      97.709603      299.04324     -4.9674381      75810.69       75832.509      28541.451      47291.058    
    302000   302000         0.30793094     0.30493257     356.78677      258.1073       98.679476      97.718618      299.95144     -29.641907      75968.225      76098.422      28628.132      47470.29     
    303000   303000         0.30816421     0.25092778     368.01551      248.00463      120.01088      97.720833      301.11163     -326.86356      74670.071      76105.759      28738.864      47366.895    
    304000   304000         0.30755222     0.29749097     345.77449      244.75727      101.01722      97.71255       299.19621     -229.63848      74857.836      75866.481      28556.051      47310.43     
    305000   305000         0.30748184     0.34542347     346.37404      259.3937       86.980344      97.713259      300.47929      366.20238      77464.5        75856.023      28678.511      47177.512    
    306000   306000         0.30775979     0.30075389     354.19566      254.20283      99.992832      97.716576      298.75502     -481.77608      73921.818      76037.931      28513.943      47523.988    
    307000   307000         0.3075361      0.32382499     343.84172      251.02989      92.811831      97.72768       300.73795      461.20866      78045.655      76019.881      28703.199      47316.682    
    308000   308000         0.30754098     0.32355327     345.62688      252.74649      92.880396      97.716263      299.27453     -504.19594      73801.92       76016.507      28563.526      47452.981    
    309000   309000         0.30796199     0.27377458     358.00386      248.05552      109.94834      97.742783      301.07459      588.65776      78762.689      76177.118      28735.329      47441.789    
    310000   310000         0.30765523     0.32504151     339.53942      247.02383      92.515582      97.743842      300.38046     -75.809565      75693.163      76026.143      28669.079      47357.063    
    311000   311000         0.30776236     0.32728852     343.8074       251.90983      91.897576      97.728071      299.01973     -158.76239      75333.249      76030.583      28539.208      47491.376    
    312000   312000         0.30811685     0.29868258     356.27674      255.45712      100.81962      97.732615      302.1255      -32.947123      75928.626      76073.34       28835.63       47237.71     
    313000   313000         0.30748719     0.2895812      354.12603      250.35562      103.77041      97.727523      299.5775       651.59955      78781.021      75918.99       28592.442      47326.548    
    314000   314000         0.30869976     0.31740771     351.11894      256.09009      95.028849      97.709469      301.20351     -321.9794       74594.186      76008.421      28747.633      47260.788    
    315000   315000         0.30775212     0.3173151      344.22286      249.45019      94.772677      97.717608      300.63531     -135.44977      75377.457      75972.395      28693.403      47278.993    
    316000   316000         0.30885225     0.28470707     348.68201      242.66125      106.02076      97.73236       301.04206     -821.32581      72559.619      76167.14       28732.224      47434.916    
    317000   317000         0.30896239     0.33041355     337.81409      246.42842      91.385667      97.730547      300.89579      112.0198       76538.411      76046.385      28718.264      47328.121    
    318000   318000         0.30861912     0.27464681     345.29051      235.46844      109.82207      97.733026      300.39266     -67.422866      75665.91       75962.052      28670.243      47291.809    
    319000   319000         0.30764596     0.27075439     351.43511      240.37202      111.06309      97.744887      299.56714      325.0978       77192.322      75764.39       28591.454      47172.936    
    320000   320000         0.30803683     0.33059906     342.28448      251.20568      91.078803      97.749892      299.62296      680.42983      78826.663      75838.001      28596.781      47241.219    
    321000   321000         0.30799183     0.2629177      361.6972       247.18037      114.51683      97.757471      301.1401       316.0778       77394.472      76006.159      28741.581      47264.578    
[...]
    932000   932000         0.30713237     0.27610023     353.34831      244.71108      108.63723      97.660704      298.9821       467.72865      77582.861      75528.45       28535.616      46992.834    
    933000   933000         0.30700059     0.27642806     352.92097      244.45392      108.46706      97.665408      295.30594     -15.698689      75378.822      75447.776      28184.754      47263.022    
    934000   934000         0.30700665     0.29297837     350.15138      247.80962      102.34176      97.665386      297.77803     -220.94733      74423.965      75394.435      28420.696      46973.739    
    935000   935000         0.30693102     0.33665536     344.14429      255.10189      89.0424        97.665596      297.78143      113.34461      76007.036      75509.19       28421.021      47088.169    
    936000   936000         0.30677559     0.28042516     351.51243      244.67105      106.84139      97.664268      298.49676      523.33694      77916.883      75618.222      28489.294      47128.928    
    937000   937000         0.3069242      0.28600955     346.28284      241.4815       104.80133      97.659883      297.09579     -287.97651      74302.431      75567.315      28355.582      47211.733    
    938000   938000         0.30715984     0.27616649     353.81628      245.19652      108.61976      97.659701      297.08922     -80.603587      75195.436      75549.472      28354.955      47194.517    
    939000   939000         0.30667783     0.27457298     351.0423       241.95935      109.08295      97.663498      296.9804      -432.28728      73509.41       75408.152      28344.569      47063.583    
    940000   940000         0.30655204     0.33131245     346.20026      255.8362       90.364061      97.662826      297.35861      400.07875      77301.327      75544.055      28380.666      47163.389    
    941000   941000         0.30685039     0.2941725      353.92733      252.05939      101.86794      97.659145      298.39247      458.69769      77502.82       75488.076      28479.34       47008.735    
    942000   942000         0.30683635     0.33536987     347.26644      257.91871      89.347723      97.656403      297.90016     -248.80716      74421.636      75514.475      28432.353      47082.122    
    943000   943000         0.30708785     0.29075513     349.54579      246.40499      103.14079      97.655163      298.67865     -286.8159       74347.99       75607.776      28506.654      47101.122    
    944000   944000         0.30686026     0.3501426      332.20373      246.61728      85.586454      97.65834       295.73208     -512.28388      73104.813      75354.925      28225.426      47129.499    
    945000   945000         0.30728093     0.28747545     359.34914      254.96593      104.38321      97.655295      297.81543      192.29856      76340.617      75495.981      28424.267      47071.714    
    946000   946000         0.3070946      0.33239872     344.71973      254.4962       90.22353       97.657812      298.06422      13.889621      75409.689      75348.681      28448.011      46900.67     
    947000   947000         0.30704586     0.33632303     345.19831      256.04091      89.157403      97.658665      296.56405      711.88931      78418.347      75291.505      28304.831      46986.673    
    948000   948000         0.30730199     0.29282887     348.75667      246.2711       102.48557      97.658768      296.8971      -591.90827      72804.529      75404.377      28336.618      47067.759    
    949000   949000         0.30724651     0.31325916     345.45382      249.66821      95.78561       97.660082      296.41732     -88.907832      74978.78       75369.291      28290.827      47078.464    
    950000   950000         0.30731194     0.26490981     366.05895      252.76889      113.29006      97.65858       297.37983     -87.958101      75099.69       75486.03       28382.691      47103.339    
    951000   951000         0.30714453     0.32455006     346.02178      253.59751      92.42427       97.661849      297.59933     -387.4956       73756.143      75458.145      28403.641      47054.504    
    952000   952000         0.30683716     0.39671123     332.77253      257.2337       75.538834      97.66452       297.43814      29.173751      75437.285      75309.144      28388.257      46920.887    
    953000   953000         0.30714977     0.27734236     354.88597      246.72724      108.15873      97.662445      298.57438     -844.89797      71677.27       75388.328      28496.703      46891.625    
    954000   954000         0.30703202     0.35386786     340.88352      256.14274      84.740781      97.667466      299.10805     -66.213944      75124.33       75415.162      28547.637      46867.525    
    955000   955000         0.3070098      0.28432613     357.76106      252.30389      105.45717      97.665384      298.26125      829.71747      79097.027      75452.646      28466.817      46985.83     
    956000   956000         0.30706088     0.30827047     347.70179      250.41831      97.28348       97.666703      298.63109     -171.94285      74619.574      75374.801      28502.114      46872.687    
    957000   957000         0.30699333     0.34081677     337.88337      249.91458      87.968783      97.660873      299.61313      409.60182      77300.245      75501.145      28595.843      46905.301    
    958000   958000         0.30749687     0.28601685     345.06343      240.07186      104.99157      97.65744       298.51492     -533.37514      73163.081      75505.833      28491.028      47014.805    
    959000   959000         0.30753914     0.28892203     347.15445      243.20558      103.94887      97.65625       297.92322      221.62615      76411.013      75437.561      28434.554      47003.007    
    960000   960000         0.30726657     0.3176783      349.88289      255.42784      94.455047      97.65566       297.61444     -295.85789      74227.126      75526.627      28405.083      47121.544    
    961000   961000         0.30749982     0.30760329     348.01352      250.38894      97.624579      97.657428      299.2724      -567.1548       73062.271      75553.394      28563.323      46990.07     
    962000   962000         0.30761112     0.2880338      352.89585      248.59566      104.30019      97.662201      296.97002      314.40825      76805.022      75424.042      28343.578      47080.464    
    963000   963000         0.30751558     0.29764742     348.52308      247.62149      100.90158      97.663657      296.52178     -166.46295      74786.109      75517.267      28300.797      47216.47     
    964000   964000         0.30737505     0.33565353     347.19385      257.75839      89.435452      97.663505      298.28592      52.077403      75890.778      75662.038      28469.17       47192.867    
    965000   965000         0.30713843     0.3472583      348.10334      261.72646      86.376887      97.659842      297.00218     -224.61652      74467.575      75454.162      28346.648      47107.514    
    966000   966000         0.30688594     0.31797007     350.36181      256.10846      94.253349      97.6576        296.68465     -60.053589      75139.479      75403.253      28316.342      47086.911    
    967000   967000         0.30710841     0.26137747     359.52672      244.78914      114.73757      97.652216      296.85678     -498.65463      73185.512      75375.761      28332.77       47042.99     
    968000   968000         0.30705625     0.32517239     342.8485       250.63649      92.212017      97.652474      296.56022     -348.21576      73691.838      75221.311      28304.466      46916.845    
    969000   969000         0.30708642     0.34516526     335.50219      248.62028      86.881913      97.655307      295.96153     -189.85078      74387.513      75221.398      28247.325      46974.073    
    970000   970000         0.30704711     0.29169165     353.38461      250.59015      102.79446      97.653692      297.68297     -67.329011      75027.407      75323.137      28411.623      46911.514    
    971000   971000         0.30709072     0.32477341     347.8557       255.52082      92.33488       97.651647      296.89117      543.82054      77680.932      75292.3        28336.053      46956.248    
    972000   972000         0.30730368     0.29715422     347.29441      246.30556      100.98885      97.653442      297.06032     -664.9005       72382.644      75303.096      28352.197      46950.9      
    973000   973000         0.30721094     0.34653038     338.80604      252.23479      86.571248      97.651365      294.65206      193.04865      76123.329      75275.399      28122.346      47153.053    
    974000   974000         0.30725286     0.33796079     350.14193      261.36488      88.77705       97.64974       297.91548     -887.02467      71410.502      75306.594      28433.815      46872.779    
    975000   975000         0.30725236     0.29750862     353.31124      252.46321      100.84803      97.649889      297.72083     -51.325396      75238.242      75463.679      28415.237      47048.442    
    976000   976000         0.30741833     0.32742616     350.93123      259.24656      91.684669      97.651818      298.9811      -164.34033      74795.613      75517.448      28535.521      46981.927    
    977000   977000         0.30740861     0.27935965     354.94861      247.49083      107.45778      97.65298       297.56758     -382.31128      73752.228      75431.46       28400.61       47030.85     
    978000   978000         0.30732401     0.28983338     355.65084      252.10687      103.54397      97.651006      296.28475     -144.50782      74887.449      75522.173      28278.174      47243.999    
    979000   979000         0.30745706     0.28750512     356.41975      251.99382      104.42593      97.649376      296.78479     -272.21552      74360.728      75556.384      28325.899      47230.485    
    980000   980000         0.30747698     0.29411397     360.20166      258.11619      102.08547      97.648815      299.90732      91.780315      76045.596      75642.468      28623.922      47018.546    
    981000   981000         0.30738737     0.36538721     337.68994      255.53659      82.15335       97.654575      294.94243     -646.40541      72559.812      75399.028      28150.06       47248.968    
    982000   982000         0.30735814     0.32775692     340.12612      248.54905      91.57707       97.654866      296.81587     -247.83067      74175.035      75263.585      28328.866      46934.72     
    983000   983000         0.30743612     0.30856985     339.51447      242.21716      97.297313      97.656116      296.63139     -314.64226      73921.792      75303.8        28311.258      46992.542    
    984000   984000         0.30748958     0.31836568     351.6378       257.31871      94.319097      97.655222      298.2572       113.19015      76060.411      75563.244      28466.43       47096.814    
    985000   985000         0.30731043     0.31349558     356.55853      260.8285       95.730029      97.65676       298.14757     -464.35184      73473.05       75512.63       28455.967      47056.663    
    986000   986000         0.30726158     0.32673221     348.35526      256.5174       91.837853      97.657457      297.86062     -66.375172      75173.198      75464.738      28428.579      47036.159    
    987000   987000         0.30737039     0.28658775     360.24986      255.51001      104.73986      97.657942      298.44078      73.317663      75756.508      75434.474      28483.951      46950.523    
    988000   988000         0.30718669     0.32911272     343.0765       251.92912      91.147387      97.653203      297.63396     -198.85819      74392.173      75265.621      28406.946      46858.674    
    989000   989000         0.30728131     0.2977204      352.99917      252.20763      100.79154      97.65546       295.8576      -99.589871      74702.855      75140.285      28237.405      46902.879    
    990000   990000         0.30706384     0.30862441     346.18824      249.02461      97.163626      97.657434      295.64433     -129.82391      74532.227      75102.455      28217.051      46885.404    
    991000   991000         0.30710807     0.3353005      345.8152       256.36949      89.445712      97.6568        295.03124     -173.66942      74353.951      75116.762      28158.536      46958.226    
    992000   992000         0.30730042     0.31062408     353.31807      256.70354      96.614536      97.659486      297.84801      217.22799      76187.636      75233.502      28427.375      46806.127    
    993000   993000         0.30752271     0.29445391     357.24205      255.25262      101.98943      97.655183      296.90904     -104.13969      74819.986      75277.401      28337.758      46939.643    
    994000   994000         0.30749933     0.33105631     343.41644      252.71137      90.705066      97.653821      296.1258      -505.81587      73096.806      75318.508      28263.003      47055.505    
    995000   995000         0.30729791     0.3177762      339.98777      245.55778      94.429984      97.649873      295.38637     -118.33632      74553.362      75073.132      28192.431      46880.702    
    996000   996000         0.30751433     0.3554296      338.96975      254.48818      84.481574      97.64505       297.10662     -282.96708      74045.25       75288.131      28356.616      46931.515    
    997000   997000         0.30749305     0.31665204     345.60376      250.78173      94.822039      97.646409      296.35862      528.23122      77594.444      75274.286      28285.224      46989.061    
    998000   998000         0.30725963     0.29479799     348.87452      247.09706      101.77746      97.649638      295.50609     -326.49461      74008.133      75442.201      28203.857      47238.344    
    999000   999000         0.30722943     0.29383917     353.88767      251.78818      102.09949      97.649595      297.17579      272.61641      76719.74       75522.323      28363.217      47159.105    
   1000000   1000000        0.30750307     0.29921722     353.46804      253.11706      100.35098      97.646968      297.99957     -122.09417      75086.94       75623.216      28441.841      47181.375    
   1001000   1001000        0.30726074     0.28611386     354.05698      249.19042      104.86656      97.649238      296.90927      210.73657      76476.201      75550.579      28337.779      47212.8      
   1002000   1002000        0.30729909     0.30030877     348.75441      248.82965      99.924751      97.651702      297.27667     -106.17931      75055.754      75522.127      28372.845      47149.282    
   1003000   1003000        0.30728389     0.28787723     359.55288      255.32197      104.23091      97.648155      298.77227     -280.7556       74462.233      75695.4        28515.589      47179.811    
   1004000   1004000        0.30721128     0.31542114     349.87577      254.77189      95.10388       97.64542       301.20131      130.60682      76336.719      75763.052      28747.423      47015.629    
   1005000   1005000        0.30742878     0.33288679     339.58902      249.41565      90.173367      97.640576      298.924       -235.04066      74585.474      75617.847      28530.071      47087.776    
   1006000   1006000        0.30726324     0.27382704     356.80543      247.24303      109.56241      97.63989       295.16314     -29.771726      75312.048      75442.815      28171.125      47271.69     
   1007000   1007000        0.30711755     0.28056104     356.97699      250.09417      106.88282      97.640641      299.56586     -301.61528      74292.395      75617.184      28591.331      47025.853    
   1008000   1008000        0.30714657     0.27715443     354.10483      245.89841      108.20642      97.640318      299.37739      82.909516      76053.949      75689.784      28573.344      47116.44     
   1009000   1009000        0.30730382     0.29773999     345.83616      245.05993      100.77623      97.639897      298.30792     -259.30775      74530.074      75669.035      28471.271      47197.764    
   1010000   1010000        0.30735786     0.29611454     346.41959      245.07343      101.34616      97.638862      296.49707     -159.42337      75037.885      75738.122      28298.438      47439.684    
   1011000   1011000        0.30717132     0.31884687     343.71516      249.64975      94.06541       97.640828      297.00578     -477.9036       73544.773      75643.877      28346.991      47296.886    
   1012000   1012000        0.30733424     0.29818361     346.60076      245.96245      100.63831      97.641886      298.58831      289.09363      76988.695      75718.904      28498.032      47220.872    
   1013000   1013000        0.30740786     0.33711088     342.15706      253.12081      89.036246      97.639295      297.0337      -155.04704      74946.295      75627.311      28349.656      47277.655    
   1014000   1014000        0.30738902     0.3129336      350.24992      254.34339      95.906536      97.636464      300.1893      -279.72993      74498.236      75726.898      28650.834      47076.064    
   1015000   1015000        0.30762393     0.28349284     353.36524      247.41395      105.9513       97.640108      298.16206     -539.67876      73175.5        75545.939      28457.35       47088.589    
   1016000   1016000        0.30717946     0.36964315     339.35849      258.22063      81.137859      97.636912      297.1928      -180.77372      74687.805      75481.82       28364.841      47116.979    
   1017000   1017000        0.30744551     0.36004987     336.23278      252.86041      83.372372      97.637503      295.69451     -40.44546       75406.333      75583.982      28221.84       47362.142    
   1018000   1018000        0.30749825     0.30535796     343.0442       244.72186      98.322341      97.637984      296.52631     -15.922982      75481.126      75551.065      28301.23       47249.836    
   1019000   1019000        0.30761333     0.30834152     348.37164      250.96265      97.408993      97.639582      297.69604      591.97928      78307.813      75707.653      28412.872      47294.781    
   1020000   1020000        0.30756942     0.25842137     366.00944      249.80034      116.2091       97.63947       298.13234     -1234.9713      70279.775      75704.159      28454.513      47249.646    
   1021000   1021000        0.30754999     0.30060873     344.81455      244.921        99.893552      97.639001      297.64101     -809.44314      71999.082      75554.411      28407.619      47146.793    
Loop time of 12548.4 on 32 procs for 1000000 steps with 32020 atoms

Performance: 6.885 ns/day, 3.486 hours/ns, 79.691 timesteps/s, 2.552 Matom-step/s
99.5% CPU use with 32 MPI tasks x 1 OpenMP threads

MPI task timing breakdown:
Section |  min time  |  avg time  |  max time  |%varavg| %total
---------------------------------------------------------------
Pair    | 7813.5     | 8417.6     | 8870.9     | 277.3 | 67.08
Bond    | 166.66     | 174.91     | 184.98     |  30.3 |  1.39
Kspace  | 2164.1     | 2611.1     | 3207.4     | 482.6 | 20.81
Neigh   | 543.49     | 548.64     | 552.17     |   8.4 |  4.37
Comm    | 458.8      | 522.83     | 612.12     | 170.7 |  4.17
Output  | 0.18161    | 0.19348    | 0.44897    |  10.5 |  0.00
Modify  | 207.21     | 245.21     | 278.78     | 127.4 |  1.95
Other   |            | 27.96      |            |       |  0.22

Nlocal:        1000.62 ave        1032 max         940 min
Histogram: 1 0 1 3 2 5 5 5 5 5
Nghost:        11931.5 ave       12038 max       11764 min
Histogram: 2 0 2 2 1 5 6 9 4 1
Neighs:         611064 ave      644297 max      553556 min
Histogram: 1 0 1 2 5 7 2 5 6 3

Total # of neighbors = 19554041
Ave neighs/atom = 610.6821
Ave special neighs/atom = 10.738289
Neighbor list builds = 40502
Dangerous builds = 0
Total wall time: 3:33:32
