units real
atom_style full
boundary p p p

# styles
pair_style lj/charmm/coul/long 8.0 12.0
kspace_style pppm 1e-6
dielectric 1.000000
bond_style harmonic
angle_style harmonic
dihedral_style fourier
improper_style cvff
special_bonds amber
pair_modify mix arithmetic
neighbor 2.0 bin
neigh_modify delay 0 every 1 check yes

# system definition
read_data ../final.data
Reading data file ...
  orthogonal box = (-33.330319 -36.534749 -30.91591) to (33.330319 36.534749 30.91591)
  4 by 4 by 2 MPI processor grid
  reading atoms ...
  32020 atoms
  reading velocities ...
  32020 velocities
  scanning bonds ...
  3 = max bonds/atom
  scanning angles ...
  6 = max angles/atom
  scanning dihedrals ...
  15 = max dihedrals/atom
  scanning impropers ...
  1 = max impropers/atom
  reading bonds ...
  32010 bonds
  reading angles ...
  60000 angles
  reading dihedrals ...
  79910 dihedrals
  reading impropers ...
  2000 impropers
Finding 1-2 1-3 1-4 neighbors ...
  special bond factors lj:    0        0        0.5     
  special bond factors coul:  0        0        0.8333333333333334
     4 = max # of 1-2 neighbors
     8 = max # of 1-3 neighbors
    17 = max # of 1-4 neighbors
    20 = max # of special neighbors
  special bonds CPU = 0.080 seconds
  read_data CPU = 0.533 seconds
# do not reset velocities

# vars
variable dt equal 1.0
variable tLog equal 1000
variable nEvery equal 10
variable nRepeat equal 100
variable boolDump equal 0
variable tDump equal 1000

variable tPreeq equal 10000
variable tPrerun equal 10000
variable tDelay equal 1000
variable tTCrun equal 1000000

# desiered temperature difference
variable Tavg equal 300.0
variable TempDiff equal 100.0
variable Thi equal ${Tavg}+(${TempDiff}/2)
variable Thi equal 300+(${TempDiff}/2)
variable Thi equal 300+(100/2)
variable Tlo equal ${Tavg}-(${TempDiff}/2)
variable Tlo equal 300-(${TempDiff}/2)
variable Tlo equal 300-(100/2)

# defining regions
variable hot_lo equal (ly*0)+ylo
variable hot_hi equal (ly*0.05)+ylo
variable cold_lo equal (ly*0.50)+ylo
variable cold_hi equal (ly*0.55)+ylo

# define heating and cooling block regions
region hot block INF INF ${hot_lo} ${hot_hi} INF INF units box
region hot block INF INF -36.5347487726171 ${hot_hi} INF INF units box
region hot block INF INF -36.5347487726171 -32.8812738953554 INF INF units box
region cold block INF INF ${cold_lo} ${cold_hi} INF INF units box
region cold block INF INF 0 ${cold_hi} INF INF units box
region cold block INF INF 0 3.65347487726171 INF INF units box
compute Thot all temp/region hot
compute Tcold all temp/region cold

# STEP 1 - 1st equilibration (nve)
# 1a - thermo output for md1
thermo_style custom step time temp c_Thot c_Tcold press enthalpy etotal ke pe
thermo_modify colname c_Thot Temp_hot colname c_Tcold Temp_cold
thermo_modify flush yes
thermo ${tLog}
thermo 1000

# 1b - nve equilibration
timestep ${dt}
timestep 1
fix md1 all nve
run ${tPreeq}
run 10000
PPPM initialization ...
  using 12-bit tables for long-range coulomb (src/kspace.cpp:342)
  G vector (1/distance) = 0.25629853
  grid = 50 54 48
  stencil order = 5
  estimated absolute RMS force accuracy = 0.00035481857
  estimated relative force accuracy = 1.0685256e-06
  using double precision FFTW3
  3d grid and FFT values/proc = 11780 5400
Generated 21 of 21 mixed pair_coeff terms from arithmetic mixing rule
Neighbor list info ...
  update: every = 1 steps, delay = 0 steps, check = yes
  max neighbors/atom: 2000, page size: 100000
  master list distance cutoff = 14
  ghost atom cutoff = 14
  binsize = 7, bins = 10 11 9
  1 neighbor lists, perpetual/occasional/extra = 1 0 0
  (1) pair lj/charmm/coul/long, perpetual
      attributes: half, newton on
      pair build: half/bin/newton
      stencil: half/bin/3d
      bin: standard
Per MPI rank memory allocation (min/avg/max) = 18.11 | 18.46 | 18.65 Mbytes
   Step          Time           Temp         Temp_hot      Temp_cold        Press         Enthalpy        TotEng         KinEng         PotEng    
         0   0              301.29534      305.556        315.77202     -364.57431      74529.36       76130.686      28756.398      47374.288    
      1000   1000           299.73111      298.13509      312.84637      451.01357      78117.83       76136.836      28607.104      47529.732    
      2000   2000           302.13503      302.94254      308.62826     -107.20829      75658.758      76129.651      28836.539      47293.112    
      3000   3000           300.52217      296.94038      298.76434     -10.38982       76094.18       76139.816      28682.604      47457.211    
      4000   4000           301.97549      301.04745      300.92897     -83.902929      75766.292      76134.82       28821.313      47313.507    
      5000   5000           301.52743      301.24859      300.23834      138.19615      76737.298      76130.297      28778.549      47351.748    
      6000   6000           302.03756      303.38578      302.49403      328.21064      77575.609      76134.005      28827.237      47306.768    
      7000   7000           301.31761      306.72401      296.26882     -357.49989      74566.936      76137.188      28758.523      47378.665    
      8000   8000           301.39707      310.26869      299.1748       182.01363      76932.472      76133.011      28766.107      47366.904    
      9000   9000           301.24745      303.42822      304.81204      254.07614      77242.877      76126.895      28751.827      47375.068    
     10000   10000          300.81516      291.93322      301.95391     -299.6309       74825.025      76141.099      28710.568      47430.531    
Loop time of 126.305 on 32 procs for 10000 steps with 32020 atoms

Performance: 6.841 ns/day, 3.508 hours/ns, 79.174 timesteps/s, 2.535 Matom-step/s
99.5% CPU use with 32 MPI tasks x 1 OpenMP threads

MPI task timing breakdown:
Section |  min time  |  avg time  |  max time  |%varavg| %total
---------------------------------------------------------------
Pair    | 80.123     | 85.193     | 91.502     |  30.0 | 67.45
Bond    | 1.6069     | 1.7529     | 1.9201     |   5.5 |  1.39
Kspace  | 21.019     | 27.328     | 32.444     |  51.9 | 21.64
Neigh   | 5.4124     | 5.468      | 5.5039     |   0.9 |  4.33
Comm    | 4.7281     | 5.3842     | 6.2288     |  17.6 |  4.26
Output  | 0.0010319  | 0.0016396  | 0.0033459  |   1.1 |  0.00
Modify  | 0.052104   | 0.055426   | 0.063958   |   1.1 |  0.04
Other   |            | 1.121      |            |       |  0.89

Nlocal:        1000.62 ave        1034 max         962 min
Histogram: 1 4 4 2 2 3 6 6 1 3
Nghost:        11933.7 ave       11992 max       11882 min
Histogram: 2 5 4 5 1 4 3 1 4 3
Neighs:         610995 ave      643883 max      578814 min
Histogram: 3 0 6 1 5 6 3 3 3 2

Total # of neighbors = 19551834
Ave neighs/atom = 610.61318
Ave special neighs/atom = 10.738289
Neighbor list builds = 403
Dangerous builds = 0
unfix md1

# STEP 2 - pre run
# 2a - impose nve
fix md2 all nve

# 2b - impose thermostating
fix hot all langevin ${Thi} ${Thi} 100.0 57485 tally yes
fix hot all langevin 350 ${Thi} 100.0 57485 tally yes
fix hot all langevin 350 350 100.0 57485 tally yes
fix cold all langevin ${Tlo} ${Tlo} 100.0 12490 tally yes
fix cold all langevin 250 ${Tlo} 100.0 12490 tally yes
fix cold all langevin 250 250 100.0 12490 tally yes
fix_modify hot temp Thot
fix_modify cold temp Tcold
# calculate tdiff of regions
variable tdiff equal c_Thot-c_Tcold

# 2c - thermo output
thermo_style custom step time temp c_Thot c_Tcold f_hot f_cold v_tdiff press enthalpy etotal ke pe
WARNING: New thermo_style command, previous thermo_modify settings will be lost (src/output.cpp:904)
thermo_modify colname c_Thot Temp_hot colname c_Tcold Temp_cold               colname f_hot E_hot colname f_cold E_cold               colname v_tdiff dTemp_step
thermo_modify flush yes
thermo ${tLog}
thermo 1000

# 2d - pre run
run ${tPrerun}
run 10000
PPPM initialization ...
  using 12-bit tables for long-range coulomb (src/kspace.cpp:342)
  G vector (1/distance) = 0.25629853
  grid = 50 54 48
  stencil order = 5
  estimated absolute RMS force accuracy = 0.00035481857
  estimated relative force accuracy = 1.0685256e-06
  using double precision FFTW3
  3d grid and FFT values/proc = 11780 5400
Generated 21 of 21 mixed pair_coeff terms from arithmetic mixing rule
Per MPI rank memory allocation (min/avg/max) = 19.16 | 19.32 | 19.4 Mbytes
   Step          Time           Temp         Temp_hot      Temp_cold        E_hot          E_cold       dTemp_step       Press         Enthalpy        TotEng         KinEng         PotEng    
     10000   10000          300.81516      292.44088      301.95391     -0             -0             -9.5130283     -299.6309       74825.025      76141.099      28710.568      47430.531    
     11000   11000          300.38444      345.16384      251.16198     -1005.6764      1117.9308      94.001865      93.217565      76427.991      76018.55       28669.459      47349.091    
     12000   12000          301.5147       346.76396      262.22699     -1332.0904      1424.5065      84.53697       240.6877       77101.19       76044.014      28777.334      47266.68     
     13000   13000          300.24952      343.35536      251.49928     -1552.9518      1714.1935      91.856076      56.56207       76234.06       75985.622      28656.582      47329.04     
     14000   14000          297.98832      342.40924      249.65538     -1862.5761      2004.0949      92.753866      104.91523      76477.395      76016.574      28440.767      47575.807    
     15000   15000          300.22476      337.55097      253.30575     -1937.7448      2143.1211      84.245222     -121.42123      75426.632      75959.952      28654.219      47305.733    
     16000   16000          300.89526      339.54021      248.83577     -2115.2281      2361.7894      90.704437     -388.20729      74210.968      75916.096      28718.213      47197.884    
     17000   17000          301.68156      363.34962      245.6546      -2306.345       2512.6203      117.69502     -354.59672      74404.189      75961.69       28793.26       47168.43     
     18000   18000          299.5132       355.9726       250.69495     -2253.7505      2689.0862      105.27764     -257.73124      74609.738      75741.774      28586.306      47155.468    
     19000   19000          297.10717      349.04435      248.44778     -2166.9809      2893.1604      100.59657      325.16443      76882.373      75454.148      28356.668      47097.48     
     20000   20000          296.32586      349.88194      254.90569     -2289.9578      3021.0704      94.976256      375.49493      77106.952      75457.66       28282.098      47175.562    
Loop time of 126.597 on 32 procs for 10000 steps with 32020 atoms

Performance: 6.825 ns/day, 3.517 hours/ns, 78.991 timesteps/s, 2.529 Matom-step/s
99.5% CPU use with 32 MPI tasks x 1 OpenMP threads

MPI task timing breakdown:
Section |  min time  |  avg time  |  max time  |%varavg| %total
---------------------------------------------------------------
Pair    | 79.54      | 84.451     | 89.377     |  32.0 | 66.71
Bond    | 1.6043     | 1.7633     | 1.9324     |   5.9 |  1.39
Kspace  | 21.935     | 26.69      | 31.632     |  56.0 | 21.08
Neigh   | 5.498      | 5.5418     | 5.574      |   0.8 |  4.38
Comm    | 4.6275     | 5.3951     | 6.1772     |  17.1 |  4.26
Output  | 0.0016893  | 0.0018206  | 0.0036344  |   0.8 |  0.00
Modify  | 2.0928     | 2.4615     | 2.8765     |  14.8 |  1.94
Other   |            | 0.2924     |            |       |  0.23

Nlocal:        1000.62 ave        1040 max         953 min
Histogram: 1 2 2 6 2 8 1 1 5 4
Nghost:        11944.5 ave       12079 max       11837 min
Histogram: 1 5 5 4 6 3 0 5 1 2
Neighs:         611044 ave      652076 max      567214 min
Histogram: 2 2 3 5 3 3 6 5 1 2

Total # of neighbors = 19553414
Ave neighs/atom = 610.66252
Ave special neighs/atom = 10.738289
Neighbor list builds = 407
Dangerous builds = 0
unfix md2

# STEP 3 - md for tc caluclation
# 3a - impose nve
fix md3 all nve

# 3b - calculate and output thermal profile
compute ke all ke/atom
variable temp atom c_ke/(1.5*0.001987204)
compute layers all chunk/atom bin/1d y lower 0.05 units reduced
fix bins all ave/chunk ${nEvery} ${nRepeat} ${tLog} layers v_temp file Tprofile_y_lav.dat
fix bins all ave/chunk 10 ${nRepeat} ${tLog} layers v_temp file Tprofile_y_lav.dat
fix bins all ave/chunk 10 100 ${tLog} layers v_temp file Tprofile_y_lav.dat
fix bins all ave/chunk 10 100 1000 layers v_temp file Tprofile_y_lav.dat

# 3c - reset thermostats to zero energy accumulation
fix hot all langevin ${Thi} ${Thi} 100.0 57485 tally yes
fix hot all langevin 350 ${Thi} 100.0 57485 tally yes
fix hot all langevin 350 350 100.0 57485 tally yes
fix cold all langevin ${Tlo} ${Tlo} 100.0 12490 tally yes
fix cold all langevin 250 ${Tlo} 100.0 12490 tally yes
fix cold all langevin 250 250 100.0 12490 tally yes
fix_modify hot temp Thot
fix_modify cold temp Tcold

# 3c - compute average tdiff
fix ave all ave/time ${nEvery} ${nRepeat} ${tLog} v_tdiff ave running
fix ave all ave/time 10 ${nRepeat} ${tLog} v_tdiff ave running
fix ave all ave/time 10 100 ${tLog} v_tdiff ave running
fix ave all ave/time 10 100 1000 v_tdiff ave running

# 3d - time delay run
variable aTime equal time
variable start_time equal ${aTime}
variable start_time equal 20000
run ${tDelay}
run 1000
PPPM initialization ...
  using 12-bit tables for long-range coulomb (src/kspace.cpp:342)
  G vector (1/distance) = 0.25629853
  grid = 50 54 48
  stencil order = 5
  estimated absolute RMS force accuracy = 0.00035481857
  estimated relative force accuracy = 1.0685256e-06
  using double precision FFTW3
  3d grid and FFT values/proc = 11780 5400
Generated 21 of 21 mixed pair_coeff terms from arithmetic mixing rule
Per MPI rank memory allocation (min/avg/max) = 19.41 | 19.57 | 19.65 Mbytes
   Step          Time           Temp         Temp_hot      Temp_cold        E_hot          E_cold       dTemp_step       Press         Enthalpy        TotEng         KinEng         PotEng    
     20000   20000          296.32586      349.22278      254.90569     -0             -0              94.317093      375.49493      77106.952      75457.66       28282.098      47175.562    
     21000   21000          298.21437      358.6452       247.61902     -239.87616      160.75898      111.02618      153.6084       76210.871      75536.174      28462.342      47073.832    
Loop time of 12.8188 on 32 procs for 1000 steps with 32020 atoms

Performance: 6.740 ns/day, 3.561 hours/ns, 78.010 timesteps/s, 2.498 Matom-step/s
99.5% CPU use with 32 MPI tasks x 1 OpenMP threads

MPI task timing breakdown:
Section |  min time  |  avg time  |  max time  |%varavg| %total
---------------------------------------------------------------
Pair    | 7.9432     | 8.4662     | 9.0761     |  10.4 | 66.05
Bond    | 0.15952    | 0.17719    | 0.19253    |   1.9 |  1.38
Kspace  | 2.1756     | 2.7967     | 3.3256     |  18.0 | 21.82
Neigh   | 0.52983    | 0.53284    | 0.53516    |   0.2 |  4.16
Comm    | 0.48926    | 0.55846    | 0.63011    |   5.0 |  4.36
Output  | 0.00011244 | 0.00011931 | 0.00025283 |   0.0 |  0.00
Modify  | 0.22114    | 0.25852    | 0.2961     |   4.7 |  2.02
Other   |            | 0.02879    |            |       |  0.22

Nlocal:        1000.62 ave        1047 max         962 min
Histogram: 3 1 6 5 6 3 0 4 1 3
Nghost:        11938.7 ave       12067 max       11849 min
Histogram: 4 3 4 7 2 5 3 0 2 2
Neighs:         611093 ave      655785 max      574324 min
Histogram: 2 3 6 4 2 7 3 1 3 1

Total # of neighbors = 19554974
Ave neighs/atom = 610.71124
Ave special neighs/atom = 10.738289
Neighbor list builds = 39
Dangerous builds = 0

# 3f - calculate kappa
variable kappa_inst equal (0.5*(abs(f_hot)+abs(f_cold))/(time-${start_time})/(lx*lz)/2.0)*(ly/2.0)/v_tdiff*69478.5785
variable kappa_inst equal (0.5*(abs(f_hot)+abs(f_cold))/(time-20000)/(lx*lz)/2.0)*(ly/2.0)/v_tdiff*69478.5785
variable kappa equal (0.5*(abs(f_hot)+abs(f_cold))/(time-${start_time})/(lx*lz)/2.0)*(ly/2.0)/f_ave*69478.5785
variable kappa equal (0.5*(abs(f_hot)+abs(f_cold))/(time-20000)/(lx*lz)/2.0)*(ly/2.0)/f_ave*69478.5785

# 3e - thermo out
# dump dump_tc all custom 1000 dump.tc_x_ehex.lammpstrj id type mol x y z ix iy iz vx vy vz
thermo_style custom step time v_kappa v_kappa_inst c_Thot c_Tcold v_tdiff f_ave temp press enthalpy etotal ke pe
WARNING: New thermo_style command, previous thermo_modify settings will be lost (src/output.cpp:904)
thermo_modify colname v_kappa kappa colname v_kappa_inst kappa_inst               colname c_Thot Temp_hot colname c_Tcold Temp_cold               colname v_tdiff dTemp_step colname f_ave dTemp
thermo_modify flush yes
thermo ${tLog}
thermo 1000

# 2g - md run for kappa calculation
# optional traj dump
if "${boolDump} == 1" then     "dump tc_dump all atom ${tDump} dump.tc_y.lammpstrj"
run ${tTCrun}
run 1000000
PPPM initialization ...
  using 12-bit tables for long-range coulomb (src/kspace.cpp:342)
  G vector (1/distance) = 0.25629853
  grid = 50 54 48
  stencil order = 5
  estimated absolute RMS force accuracy = 0.00035481857
  estimated relative force accuracy = 1.0685256e-06
  using double precision FFTW3
  3d grid and FFT values/proc = 11780 5400
Generated 21 of 21 mixed pair_coeff terms from arithmetic mixing rule
Per MPI rank memory allocation (min/avg/max) = 19.66 | 19.82 | 19.91 Mbytes
   Step          Time          kappa        kappa_inst      Temp_hot      Temp_cold      dTemp_step       dTemp           Temp          Press         Enthalpy        TotEng         KinEng         PotEng    
     21000   21000          0              0              359.05906      247.61902      111.44004      99.50666       298.21437      153.6084       76210.871      75536.174      28462.342      47073.832    
     22000   22000          0.071941474    0.085186122    337.59924      253.14777      84.451467      99.999245      299.09223      299.44788      76925.886      75610.616      28546.127      47064.489    
     23000   23000          0.13285033     0.15884804     341.43153      257.93114      83.500381      99.840714      299.39598     -798.18458      72030.808      75536.686      28575.118      46961.569    
     24000   24000          0.19735717     0.20115588     350.20761      253.32713      96.880477      98.745221      300.19726      178.00917      76393.035      75611.163      28651.594      46959.569    
     25000   25000          0.29657988     0.28730466     341.97424      240.59093      101.38331      98.212649      298.56495      241.60749      76466.935      75405.718      28495.802      46909.916    
     26000   26000          0.33306565     0.28926689     364.06832      250.61384      113.45448      98.535008      298.06673     -332.24729      74147.457      75606.792      28448.251      47158.542    
     27000   27000          0.29667093     0.31761096     350.00237      258.23957      91.762801      98.239727      297.29218     -75.769496      75169.974      75502.778      28374.325      47128.452    
     28000   28000          0.29694762     0.3047483      349.56047      253.52102      96.039449      98.562361      297.22342      452.82639      77384.358      75395.402      28367.763      47027.639    
     29000   29000          0.32930978     0.3424206      347.4782       252.59421      94.88399       98.66161       296.23084     -219.9401       74353.738      75319.784      28273.029      47046.755    
     30000   30000          0.29132385     0.30550389     352.61811      258.61085      94.007264      98.583019      295.4882      -477.75222      73140.865      75239.303      28202.149      47037.154    
     31000   31000          0.32032495     0.2907546      347.60462      238.79892      108.8057       98.761455      296.06077     -186.16535      74324.011      75141.708      28256.797      46884.912    
     32000   32000          0.33632731     0.30619287     359.27769      250.68724      108.59045      98.860903      298.35909      734.9669       78587.415      75359.209      28476.154      46883.055    
     33000   33000          0.33364335     0.32436781     347.6447       245.87042      101.77428      98.944882      297.88215      403.07033      76992.029      75221.617      28430.634      46790.983    
     34000   34000          0.33491638     0.30715769     351.02513      243.16867      107.85647      98.917061      295.78537     -542.57202      72667.043      75050.19       28230.512      46819.678    
     35000   35000          0.32410105     0.33495468     346.50451      250.77782      95.726685      98.93242       295.42617      186.78367      75993.322      75172.909      28196.229      46976.68     
     36000   36000          0.3232336      0.31550419     356.67026      255.61241      101.05785      98.641278      296.27895      186.35811      75925.729      75107.186      28277.621      46829.565    
     37000   37000          0.30100294     0.32229302     346.51455      254.53925      91.975308      98.480768      295.06632      312.09995      76480.485      75109.643      28161.884      46947.759    
     38000   38000          0.29713397     0.3012995      342.42346      245.57697      96.84649       98.204185      295.19776     -531.37851      72772.143      75106.125      28174.429      46931.696    
     39000   39000          0.29363341     0.31370023     351.56291      259.67125      91.891657      98.171506      296.19894     -25.423176      74948.7        75060.366      28269.984      46790.382    
     40000   40000          0.30466843     0.29778223     352.96192      252.64461      100.31731      98.049909      295.19398     -693.06074      72093.815      75137.956      28174.068      46963.888    
     41000   41000          0.29262127     0.33957091     346.86441      262.48712      84.37729       97.915212      295.64984     -26.824814      75112.667      75230.49       28217.577      47012.913    
     42000   42000          0.29342321     0.30837969     342.70345      249.79981      92.90364       97.639161      293.9609      -426.59562      73220.877      75094.619      28056.38       47038.239    
     43000   43000          0.30362772     0.31891567     347.5051       254.60238      92.902718      97.580459      295.29753     -534.97699      72759.154      75108.942      28183.951      46924.991    
     44000   44000          0.30167682     0.37350501     331.35706      252.52578      78.831286      97.60074       294.50746      461.83692      77149.844      75121.311      28108.545      47012.766    
     45000   45000          0.29685785     0.32586188     338.15325      249.31772      88.835529      97.515066      296.44499     -935.1958       71049.274      75156.948      28293.468      46863.481    
     46000   46000          0.30168206     0.35615707     334.60945      252.10812      82.501323      97.398663      294.79977      179.65455      76029.367      75240.267      28136.444      47103.823    
     47000   47000          0.30256279     0.2883389      354.95877      252.75922      102.19955      97.39501       295.64607      262.75535      76430.714      75276.61       28217.217      47059.392    
     48000   48000          0.30541279     0.32075923     338.16022      245.58399      92.576234      97.228024      293.81302     -467.97481      73199.808      75255.301      28042.266      47213.035    
     49000   49000          0.3108094      0.28906659     351.44174      246.81919      104.62255      97.303629      296.25257     -253.43952      74319.604      75432.79       28275.103      47157.687    
     50000   50000          0.31892663     0.29605045     352.68221      247.78208      104.90013      97.375781      296.69252      21.938428      75428.348      75331.987      28317.093      47014.895    
     51000   51000          0.30658287     0.33475678     347.09574      257.92416      89.17158       97.366141      296.6569      -183.73204      74462.662      75269.671      28313.693      46955.978    
     52000   52000          0.31577782     0.30389836     354.33277      253.15148      101.18129      97.374881      297.538       -581.20731      72861.13       75413.976      28397.788      47016.188    
     53000   53000          0.3184761      0.31726261     353.17462      255.42577      97.748848      97.376394      297.7342      -139.6483       74759.164      75372.543      28416.514      46956.03     
     54000   54000          0.31873601     0.29776887     359.60092      255.34953      104.25138      97.393501      297.31099     -293.85704      74173.779      75464.492      28376.121      47088.371    
     55000   55000          0.31904489     0.31128826     354.16216      254.28523      99.876928      97.448717      298.25937      77.862479      75746.515      75404.518      28466.637      46937.881    
     56000   56000          0.31200423     0.36350373     344.44797      260.83332      83.614652      97.416106      296.84774      39.228201      75341.301      75168.998      28331.908      46837.091    
     57000   57000          0.31531943     0.33398056     343.34846      251.48591      91.862547      97.299125      295.25764      261.63845      76465.961      75316.762      28180.144      47136.618    
     58000   58000          0.3127154      0.28797332     357.29212      251.68221      105.60991      97.254045      295.65444      319.47334      76522.527      75119.3        28218.016      46901.284    
     59000   59000          0.31914674     0.34382015     341.58192      251.24785      90.334068      97.317844      297.70758      132.60668      75888.25       75305.8        28413.972      46891.827    
     60000   60000          0.32036169     0.28495891     352.17784      242.69734      109.48049      97.381938      296.26882     -762.2324       72053.328      75401.293      28276.653      47124.64     
     61000   61000          0.31772159     0.30148383     345.34849      242.59293      102.75556      97.504046      296.54512      498.21832      77569.835      75381.503      28303.024      47078.479    
     62000   62000          0.31129227     0.31929481     349.8429       254.81412      95.028772      97.47172       295.71198     -274.67087      74126.552      75332.993      28223.507      47109.485    
     63000   63000          0.30847434     0.29320209     355.97561      253.42053      102.55508      97.477679      296.52032     -203.01265      74469.376      75361.071      28300.658      47060.414    
     64000   64000          0.30379212     0.37215676     343.60586      263.99281      79.613051      97.528979      297.5441       390.0483       77063.43       75350.215      28398.37       46951.845    
     65000   65000          0.3049309      0.30756359     356.20294      259.56559      96.637353      97.471692      298.3263      -182.95959      74724.581      75528.197      28473.025      47055.172    
     66000   66000          0.31457411     0.31761084     356.40913      259.86618      96.542956      97.47493       298.68415      179.48436      76355.74       75567.388      28507.179      47060.209    
     67000   67000          0.30658824     0.3765476      332.27454      252.90686      79.367679      97.478327      295.56256      36.397988      75576.609      75416.737      28209.246      47207.491    
     68000   68000          0.31394969     0.26629932     365.59811      250.60064      114.99747      97.543489      298.88167     -94.457816      75111.282      75526.171      28526.031      47000.14     
     69000   69000          0.31068579     0.34659882     343.63199      256.21853      87.413464      97.517831      298.55271     -55.856729      75262.077      75507.417      28494.634      47012.783    
     70000   70000          0.30648612     0.32017974     345.92686      252.55443      93.372431      97.544257      296.86275     -106.49839      75042.446      75510.22       28333.34       47176.88     
     71000   71000          0.31121626     0.26545963     356.11143      241.69722      114.41421      97.592434      297.58153     -175.77697      74746.937      75519.005      28401.942      47117.063    
     72000   72000          0.31306439     0.33154215     346.48998      254.30148      92.188499      97.629671      299.16272      607.96993      78242.597      75572.202      28552.855      47019.347    
     73000   73000          0.31837377     0.28003238     351.41868      240.37715      111.04153      97.668926      297.53812      88.831801      75998.267      75608.09       28397.799      47210.291    
     74000   74000          0.3129438      0.30478283     343.21071      242.85472      100.35599      97.738901      296.56427      136.85067      76061.506      75460.415      28304.852      47155.563    
     75000   75000          0.31183516     0.29331582     357.43012      253.42664      104.00348      97.826902      296.54171     -493.81594      73474.111      75643.106      28302.699      47340.407    
     76000   76000          0.30844153     0.31750376     350.8908       255.81583      95.074969      97.86834       298.5544       105.28032      76078.665      75616.241      28494.795      47121.446    
     77000   77000          0.31445244     0.3096556      346.46613      247.1229       99.343238      97.827797      298.60866     -315.18658      74162.463      75546.862      28499.974      47046.888    
     78000   78000          0.31577745     0.26394252     359.49278      242.38697      117.10581      97.882871      296.30281      183.68028      76282.251      75475.469      28279.897      47195.572    
     79000   79000          0.31365982     0.30034462     352.7543       250.38887      102.36543      98.019913      296.49542     -684.05983      72348.464      75353.071      28298.281      47054.79     
     80000   80000          0.3108272      0.27063192     353.909        241.26562      112.64338      98.076663      297.29701      6.0785309      75298.93       75272.231      28374.787      46897.444    
     81000   81000          0.30959489     0.3025256      348.83197      248.44979      100.38217      98.090045      296.63453      187.13449      76118.194      75296.24       28311.558      46984.682    
     82000   82000          0.3070826      0.29714321     359.71436      258.30354      101.41082      98.12844       297.36296     -133.49954      74782.679      75369.051      28381.081      46987.97     
     83000   83000          0.30932688     0.3188281      351.84366      256.66514      95.178525      98.10201       296.40934      577.11793      77900.476      75365.592      28290.065      47075.526    
     84000   84000          0.30901588     0.29332511     349.22891      245.87716      103.35175      98.103899      295.91254     -335.59444      73776.433      75250.47       28242.649      47007.821    
     85000   85000          0.3041601      0.29434086     348.51092      247.15219      101.35873      98.086554      294.92902     -224.96005      74169.355      75157.451      28148.78       47008.671    
     86000   86000          0.30673993     0.28368426     363.10335      257.01446      106.08889      98.11487       296.98414      285.26348      76644.303      75391.336      28344.926      47046.41     
     87000   87000          0.30901077     0.33626065     347.07188      256.87207      90.19981       98.154012      295.98411     -255.93639      74208.416      75332.569      28249.48       47083.089    
     88000   88000          0.31274718     0.3063852      354.36672      254.18193      100.18479      98.146811      296.20836     -34.58316       75293.113      75445.013      28270.883      47174.13     
     89000   89000          0.30882481     0.31318774     353.31856      256.4783       96.840263      98.208377      295.83637     -757.26044      72075.519      75401.645      28235.379      47166.266    
     90000   90000          0.30377349     0.36691755     339.39472      258.09933      81.295393      98.193908      296.51613     -134.38815      74642.333      75232.608      28300.258      46932.351    
     91000   91000          0.30838316     0.29673537     357.29086      255.27776      102.01311      98.160018      296.23002      107.41642      75760.57       75288.763      28272.951      47015.812    
     92000   92000          0.3077348      0.31911789     344.32466      249.73317      94.591499      98.090432      299.1191       1059.8648      79948.152      75292.891      28548.692      46744.199    
     93000   93000          0.30819424     0.33610661     343.563        253.66296      89.900043      98.042062      297.52112      269.05233      76413.34       75231.577      28396.176      46835.401    
     94000   94000          0.30774895     0.39725723     330.96493      255.07896      75.88597       97.957281      297.25546     -382.79831      73685.523      75366.894      28370.821      46996.073    
     95000   95000          0.30979083     0.29073797     355.97914      251.68334      104.2958       97.881364      299.63703      515.59218      77863.707      75599.064      28598.125      47000.939    
     96000   96000          0.31279049     0.28014828     360.68197      251.35627      109.32569      97.916674      296.57952     -437.19754      73551.638      75471.948      28306.308      47165.64     
     97000   97000          0.31296623     0.31797134     348.06493      251.69483      96.370099      97.911295      298.34969      6.0296264      75573.755      75547.271      28475.258      47072.014    
     98000   98000          0.31106458     0.38822576     334.89407      256.4269       78.467173      97.931358      298.99057      46.396927      75795.749      75591.959      28536.424      47055.535    
     99000   99000          0.31423864     0.27918439     360.43609      250.21628      110.21982      97.924472      298.1191       183.50924      76503.828      75697.797      28453.249      47244.548    
    100000   100000         0.3114104      0.31676512     347.7587       251.45629      96.302416      97.95834       298.59733      317.46684      77027.9        75633.485      28498.893      47134.593    
    101000   101000         0.30598094     0.34330348     340.77599      253.42597      87.350018      98.004684      296.29556     -23.610866      75297.972      75401.678      28279.206      47122.472    
    102000   102000         0.31048088     0.30225829     351.76744      251.10522      100.66222      97.996339      297.83617     -864.05068      71747.818      75543.001      28426.246      47116.755    
    103000   103000         0.30991055     0.31089324     364.58874      266.90982      97.678914      97.988639      299.94555      167.15721      76348.813      75614.605      28627.57       46987.035    
    104000   104000         0.31109408     0.32079914     339.90224      244.86392      95.03832       98.003187      296.21299     -182.82856      74588.517      75391.558      28271.325      47120.233    
    105000   105000         0.31302721     0.27709547     362.91359      252.09062      110.82297      98.101833      298.73414      4.5764204      75707.299      75687.198      28511.95       47175.248    
    106000   106000         0.3124845      0.26568076     356.6003       241.23783      115.36248      98.083552      297.127       -182.24565      74797.365      75597.845      28358.561      47239.284    
    107000   107000         0.308131       0.37442014     336.50863      255.80422      80.704415      98.066594      296.99256     -659.82523      72539.977      75438.138      28345.729      47092.409    
    108000   108000         0.30673908     0.32152735     347.84194      254.30842      93.53352       98.042888      298.1286      -127.0567       74913.829      75471.902      28454.156      47017.746    
    109000   109000         0.30908484     0.28531852     347.2783       241.03134      106.24696      98.07736       297.44781     -491.50672      73175.663      75334.516      28389.18       46945.336    
    110000   110000         0.30831513     0.29513711     348.58315      246.10758      102.47557      98.095556      297.99714     -479.29236      73149.251      75254.455      28441.609      46812.845    
    111000   111000         0.30977999     0.32056959     345.12983      250.336        94.793833      98.095492      296.30587      132.24759      75797.78       75216.907      28280.19       46936.717    
    112000   112000         0.30881435     0.3135511      345.66464      249.07279      96.591847      98.073423      295.78165     -1111.1538      70299.479      75180.017      28230.157      46949.86     
    113000   113000         0.30740613     0.34827467     341.46265      254.89787      86.564777      98.073252      297.62194      139.16445      75794.946      75183.692      28405.799      46777.893    
    114000   114000         0.31088858     0.29309818     358.77242      254.69757      104.07486      98.119239      295.23104     -637.91638      72466.035      75267.965      28177.605      47090.359    
    115000   115000         0.30862648     0.30783828     348.01506      249.66697      98.348089      98.09692       296.92088     -917.04317      71012.085      75040.028      28338.888      46701.14     
    116000   116000         0.30853746     0.30642501     347.82353      249.04676      98.776772      98.100479      296.34721      10.663888      75084.502      75037.663      28284.135      46753.527    
    117000   117000         0.30858866     0.32667268     339.79133      247.09468      92.696657      98.128899      296.90369     -132.47781      74476.524      75058.408      28337.247      46721.161    
    118000   118000         0.31024702     0.33230471     340.69312      249.0695       91.623621      98.137802      295.78551      86.343176      75449.659      75070.412      28230.525      46839.887    
    119000   119000         0.31014899     0.33385418     348.85521      257.6993       91.15591       98.123104      294.65059     -148.57242      74333.09       74985.667      28122.206      46863.461    
    120000   120000         0.31088178     0.32828116     338.37923      245.43204      92.947188      98.14924       293.37882     -314.09427      73495.322      74874.923      28000.825      46874.098    
    121000   121000         0.31072068     0.32243795     340.17607      245.59762      94.578441      98.144993      293.8856       211.71251      75780.214      74850.306      28049.193      46801.113    
    122000   122000         0.31332441     0.29769366     353.91965      250.60092      103.31873      98.164489      292.38151     -383.06789      73347.487      75030.042      27905.639      47124.404    
    123000   123000         0.30947845     0.32483191     345.49254      251.95889      93.533648      98.173921      295.15353      758.81274      78253.534      74920.59       28170.208      46750.382    
    124000   124000         0.30904239     0.31172589     345.6973       248.40315      97.294152      98.138984      294.31635     -803.6145       71343.959      74873.687      28090.305      46783.382    
    125000   125000         0.30653186     0.30840369     349.05515      251.52063      97.534517      98.130108      294.44505      86.668048      75331.052      74950.379      28102.588      46847.79     
    126000   126000         0.30686546     0.3321601      341.78621      251.15423      90.631986      98.102698      294.59681      788.24609      78445.36       74983.135      28117.073      46866.062    
    127000   127000         0.30746064     0.34184879     341.86763      253.63245      88.235177      98.103899      294.24056      137.90242      75438.313      74832.603      28083.071      46749.531    
    128000   128000         0.30951951     0.33620282     344.43747      254.14802      90.289454      98.073201      295.38241      281.20195      76271.028      75035.9        28192.053      46843.847    
    129000   129000         0.30938973     0.34413891     348.80013      260.64179      88.158344      98.059869      296.18351     -345.90361      73560.956      75080.274      28268.512      46811.762    
    130000   130000         0.31165127     0.31403927     343.18564      245.88536      97.300273      98.045829      298.07476      261.97804      76309.667      75158.977      28449.017      46709.96     
    131000   131000         0.30971158     0.33558543     346.04498      255.5248       90.52018       98.082394      297.05795      60.73748       75543.103      75276.325      28351.97       46924.354    
    132000   132000         0.3082106      0.33237359     346.42694      255.48048      90.946458      98.076446      296.13067     -261.93566      74275.56       75426.064      28263.469      47162.596    
    133000   133000         0.30826963     0.33508688     346.54842      256.34075      90.20767       98.05509       296.09989     -168.08723      74612.632      75350.925      28260.531      47090.394    
    134000   134000         0.30806515     0.28373433     354.29362      247.8508       106.44282      98.036029      298.44893      508.90701      77442.235      75206.955      28484.729      46722.226    
    135000   135000         0.30836388     0.29494947     343.98075      241.46686      102.51389      98.054335      295.538        455.94172      77206.822      75204.182      28206.902      46997.28     
    136000   136000         0.30927591     0.30399535     349.91093      250.13515      99.775776      98.072209      298.05896     -29.303554      75214.734      75343.444      28447.509      46895.935    
    137000   137000         0.30775073     0.31483953     347.40282      251.54188      95.860934      98.069016      298.15966     -162.44958      74528.873      75242.403      28457.121      46785.282    
    138000   138000         0.30827396     0.29358017     354.01981      251.00632      103.0135       98.103389      295.99169      31.468164      75433.599      75295.381      28250.204      47045.177    
    139000   139000         0.30911647     0.32839894     345.71495      253.35014      92.364814      98.126466      296.66324     -310.88287      73954.611      75320.106      28314.298      47005.808    
    140000   140000         0.30897845     0.33759318     337.61716      247.79542      89.821745      98.140206      294.90097     -597.7652       72608.45       75234.023      28146.103      47087.921    
    141000   141000         0.31053669     0.31060385     356.22507      258.114        98.111072      98.132288      298.25137     -404.28         73740.381      75516.106      28465.873      47050.233    
    142000   142000         0.3093614      0.33833396     340.02763      250.31651      89.711124      98.112821      296.7474       408.18279      77111.136      75318.268      28322.331      46995.938    
    143000   143000         0.30771082     0.33516623     342.87403      252.80012      90.073909      98.110728      297.14634     -289.93881      74120.207      75393.71       28360.406      47033.303    
    144000   144000         0.30747777     0.26193536     363.61734      248.43687      115.18047      98.120384      296.64378     -345.7348       73957.698      75476.274      28312.441      47163.834    
    145000   145000         0.30708414     0.29791879     349.95607      248.84223      101.11384      98.095955      296.72907      167.93635      76122.825      75385.195      28320.581      47064.615    
    146000   146000         0.30713938     0.28292063     357.6577       251.17032      106.48738      98.09057       297.33969     -14.91029       75390.575      75456.066      28378.86       47077.205    
    147000   147000         0.30572292     0.29814172     340.95802      240.37568      100.58234      98.088136      298.05418      503.36744      77608.662      75397.713      28447.053      46950.66     
    148000   148000         0.30761417     0.29370513     353.32304      250.59399      102.72905      98.084072      298.13481     -317.95911      74146.56       75543.136      28454.749      47088.388    
    149000   149000         0.30681308     0.29783507     351.94322      250.87631      101.06691      98.109472      298.19266     -209.98807      74651.549      75573.882      28460.27       47113.612    
    150000   150000         0.3085419      0.34215787     343.95118      255.48885      88.462328      98.100394      298.50593     -232.76181      74658.135      75680.498      28490.169      47190.329    
    151000   151000         0.30749488     0.28725822     342.78939      237.76132      105.02807      98.116025      295.23863     -126.837        74861.688      75418.796      28178.33       47240.466    
    152000   152000         0.30870415     0.26728595     354.5434       241.192        113.3514       98.143281      297.92221      649.16514      78245.281      75393.943      28434.458      46959.486    
    153000   153000         0.30497829     0.29636892     345.1135       244.12284      100.99066      98.139747      297.34841     -600.8063       72727.762      75366.692      28379.693      46987        
    154000   154000         0.30599951     0.28773717     350.67042      246.32852      104.34191      98.114683      296.31283     -459.0889       73309.813      75326.276      28280.854      47045.422    
    155000   155000         0.30713484     0.28932648     355.84455      251.69304      104.15151      98.112578      299.12424      58.976232      75683.163      75424.121      28549.183      46874.938    
    156000   156000         0.31113016     0.26461761     362.28029      246.9222       115.35809      98.112579      296.51876     -390.62318      73829.239      75544.979      28300.508      47244.471    
    157000   157000         0.30856536     0.30804355     353.28077      255.00467      98.276098      98.109905      296.33628     -333.31892      73986.588      75450.63       28283.092      47167.538    
    158000   158000         0.30681623     0.33549591     352.96759      263.25166      89.715926      98.102131      296.81315      197.59051      76274.952      75407.072      28328.606      47078.466    
    159000   159000         0.30703        0.3175547      345.03266      250.16601      94.866651      98.118591      296.5393      -117.87194      74778.662      75296.393      28302.469      46993.924    
    160000   160000         0.30874933     0.28501129     358.13618      251.83965      106.29653      98.123976      297.15278     -262.51086      74427.434      75580.464      28361.021      47219.443    
    161000   161000         0.30991887     0.30520203     353.58263      253.93931      99.643319      98.126789      298.14779      534.28633      77906.527      75559.773      28455.987      47103.786    
    162000   162000         0.30926705     0.3113089      346.85502      249.38514      97.469881      98.113399      296.551       -134.05072      74823.415      75412.208      28303.585      47108.622    
    163000   163000         0.30971687     0.3006999      346.90767      245.84841      101.05926      98.117058      298.23286     -30.203722      75300.593      75433.257      28464.106      46969.151    
    164000   164000         0.31156637     0.29144687     354.73882      249.83064      104.90818      98.133695      296.62437     -36.843038      75347.336      75509.162      28310.588      47198.574    
    165000   165000         0.31050946     0.27688241     359.13348      249.1023       110.03119      98.115208      298.66898     -269.14114      74238.377      75420.529      28505.731      46914.798    
    166000   166000         0.31179453     0.34546122     343.49613      254.94582      88.550306      98.111719      298.03963     -35.877053      75222.792      75380.376      28445.664      46934.711    
    167000   167000         0.3117704      0.29761754     353.19163      250.39548      102.79615      98.129704      296.80442     -527.65842      73103.608      75421.25       28327.773      47093.478    
    168000   168000         0.30959077     0.31300461     354.45171      257.38157      97.070138      98.140525      296.94368      37.367914      75406.279      75242.147      28341.064      46901.084    
    169000   169000         0.30887653     0.34483455     341.43824      253.53952      87.898722      98.131498      297.94152      272.24546      76497.144      75301.356      28436.301      46865.055    
    170000   170000         0.30909184     0.31605419     347.54551      251.59016      95.955352      98.116765      297.90993     -326.1348       73781.5        75213.987      28433.285      46780.702    
    171000   171000         0.31007588     0.28457996     354.20741      247.3004       106.90701      98.116605      298.78859      86.215328      75884.189      75505.504      28517.147      46988.357    
    172000   172000         0.30992556     0.34124        345.21024      256.09456      89.115671      98.119794      298.37512     -218.4683       74513.997      75473.579      28477.684      46995.894    
    173000   173000         0.30940222     0.28553459     346.26578      239.9328       106.33298      98.130335      297.6135       541.41899      77767.583      75389.5        28404.994      46984.506    
    174000   174000         0.30872149     0.29239455     357.60554      253.99371      103.61184      98.132257      297.77531      192.53492      76292.029      75446.355      28420.437      47025.918    
    175000   175000         0.30635162     0.37178544     337.44315      256.59194      80.85121       98.120267      296.47814     -426.75763      73512.051      75386.505      28296.631      47089.873    
    176000   176000         0.3070392      0.26204621     357.97092      242.99408      114.97684      98.128334      297.23687     -375.84236      73694.027      75344.845      28369.047      46975.798    
    177000   177000         0.30689384     0.29419265     350.90931      248.55048      102.35883      98.122577      296.3124       173.47605      76129.916      75367.955      28280.813      47087.141    
    178000   178000         0.30680844     0.36134466     333.55381      250.26983      83.283983      98.087988      296.60421     -776.54661      71830.6        75241.437      28308.665      46932.773    
    179000   179000         0.30726985     0.24907437     364.80009      243.80981      120.99028      98.075279      298.61757     -283.79907      74070.716      75317.251      28500.824      46816.427    
    180000   180000         0.30727502     0.34739039     345.52611      258.76643      86.759682      98.086332      298.38017      137.54711      76074.015      75469.865      28478.166      46991.699    
    181000   181000         0.3086214      0.25686771     363.94623      246.12349      117.82274      98.06467       298.83007      396.18469      77362.308      75622.14       28521.106      47101.033    
    182000   182000         0.30867302     0.36950109     338.02153      256.12405      81.897487      98.036461      298.36224     -453.28419      73608.805      75599.772      28476.456      47123.316    
    183000   183000         0.30992891     0.28729361     358.13073      252.35979      105.77094      98.046084      298.76605     -495.25637      73530.063      75705.386      28514.996      47190.389    
    184000   184000         0.30857359     0.31414462     355.39726      259.06941      96.327852      98.066968      298.38754     -718.85015      72428.135      75585.551      28478.87       47106.682    
    185000   185000         0.30804031     0.29775487     347.79206      246.3372       101.45486      98.067285      296.21303     -750.86719      72124.358      75422.403      28271.329      47151.075    
    186000   186000         0.30835383     0.31973262     340.11776      245.55333      94.56443       98.054019      297.73219     -1026.736       70968.872      75478.62       28416.321      47062.299    
    187000   187000         0.30781632     0.30717979     345.17041      246.91421      98.256199      98.053016      296.29505      148.85643      76157.424      75503.599      28279.157      47224.442    
    188000   188000         0.30864734     0.34908911     344.2778       257.5917       86.686099      98.044498      297.23424      236.4595       76483.164      75444.559      28368.796      47075.763    
    189000   189000         0.30951694     0.25923231     357.81835      240.73253      117.08582      98.063867      298.09525      3.8773292      75461.113      75444.082      28450.973      46993.109    
    190000   190000         0.30955944     0.29538065     355.61141      252.83735      102.77406      98.066688      297.15938      374.03026      77154.003      75511.144      28361.651      47149.493    
    191000   191000         0.30946287     0.27563557     354.2874       244.21118      110.07622      98.043821      296.92653     -205.19015      74544.777      75446.037      28339.427      47106.61     
    192000   192000         0.30971804     0.35211062     346.00699      259.78226      86.22473       98.026718      298.89128     -172.30757      74573.27       75330.099      28526.948      46803.151    
    193000   193000         0.31079748     0.29679506     350.39587      247.73186      102.66401      98.038669      296.82449     -589.22141      72885.071      75473.117      28329.689      47143.428    
    194000   194000         0.3095914      0.29808307     350.76798      248.93381      101.83417      98.048722      297.88798      309.56216      76847.077      75487.382      28431.19       47056.192    
    195000   195000         0.31036254     0.26052581     366.60167      249.78795      116.81372      98.056257      297.51609     -60.158559      75173.544      75437.779      28395.696      47042.083    
    196000   196000         0.31097907     0.250236       365.64423      243.74954      121.89469      98.085184      299.0349       64.285415      75694.728      75412.366      28540.656      46871.71     
    197000   197000         0.30897068     0.32411924     346.43768      252.93953      93.498154      98.082286      296.28509     -192.62701      74613.139      75459.218      28278.207      47181.011    
    198000   198000         0.30987888     0.27563695     357.17418      246.90008      110.2741       98.088701      296.62478      20.579437      75260.593      75170.202      28310.628      46859.574    
    199000   199000         0.31128013     0.26518293     358.31062      243.17416      115.13646      98.086001      296.16045      356.02129      76835.173      75271.415      28266.311      47005.104    
    200000   200000         0.30835845     0.30028317     351.44092      250.69932      100.7416       98.103387      295.31222     -244.12078      74201.694      75273.949      28185.353      47088.596    
    201000   201000         0.30647083     0.30487248     347.98043      249.37468      98.605759      98.091497      295.11433     -498.13246      72950.435      75138.39       28166.466      46971.924    
    202000   202000         0.30744926     0.34137002     342.98446      254.64752      88.336936      98.083116      296.16481     -121.30888      74712.316      75245.143      28266.727      46978.416    
    203000   203000         0.30912265     0.31423983     344.65743      248.17056      96.486871      98.084104      296.69598      358.58754      76637.785      75062.756      28317.423      46745.333    
    204000   204000         0.30946948     0.31016992     351.90498      254.06922      97.835762      98.057198      296.81079      238.66203      76240.116      75191.837      28328.381      46863.457    
    205000   205000         0.31077863     0.30698417     353.38464      254.14278      99.241858      98.030161      297.75806     -182.9247       74590.04       75393.503      28418.79       46974.712    
    206000   206000         0.31193547     0.35411487     338.02159      251.66735      86.354239      98.030917      297.08163     -275.05613      74024.995      75233.128      28354.231      46878.897    
    207000   207000         0.31155999     0.33559362     338.23905      247.24095      90.9981        98.017662      294.99638      25.868526      75300.746      75187.123      28155.209      47031.915    
    208000   208000         0.31118246     0.33281002     345.44781      253.80869      91.639117      98.00815       295.58282      378.71865      76827.864      75164.413      28211.181      46953.232    
    209000   209000         0.31037484     0.3780473      341.31701      260.84788      80.469124      98.014179      296.64172      1001.3035      79592.427      75194.386      28312.244      46882.142    
    210000   210000         0.30935182     0.31222905     343.60661      246.47565      97.130961      98.034357      294.67548     -202.73924      74265.204      75155.698      28124.581      47031.117    
    211000   211000         0.31130104     0.27281285     353.78981      241.93427      111.85554      98.026111      297.62409      469.50276      77367.812      75305.608      28406.005      46899.603    
    212000   212000         0.31055154     0.28448615     350.56476      243.54997      107.01479      98.032766      297.37358      192.24195      76088.164      75243.777      28382.094      46861.683    
    213000   213000         0.31193974     0.33351568     341.89583      250.19507      91.700768      98.043437      297.43664      390.2637       77124.342      75410.181      28388.113      47022.068    
    214000   214000         0.31110482     0.33533299     343.11819      252.15009      90.968107      98.052503      296.65369      106.14189      75696.509      75230.3        28313.387      46916.914    
    215000   215000         0.3112387      0.3381628      346.11596      255.87654      90.23942       98.045696      295.30565      109.17269      75777.869      75298.348      28184.726      47113.622    
    216000   216000         0.31095571     0.32051615     344.13789      249.01373      95.124163      98.048789      296.05605     -313.4931       73982.995      75359.955      28256.346      47103.609    
    217000   217000         0.31001372     0.33364263     342.45189      251.34454      91.107347      98.051449      296.97176      228.26862      76342.603      75339.976      28343.744      46996.232    
    218000   218000         0.30920926     0.32436702     348.56385      255.09691      93.466937      98.048784      296.39648      365.27376      76886.111      75281.713      28288.838      46992.876    
    219000   219000         0.30987117     0.32628705     347.85954      254.75456      93.104973      98.037346      295.16625      833.10368      78840.158      75180.904      28171.422      47009.482    
    220000   220000         0.31126494     0.3224462      347.93261      253.28335      94.649255      98.049246      297.34423     -431.86438      73370.023      75266.907      28379.293      46887.614    
    221000   221000         0.31114629     0.33310576     344.09933      252.5141       91.585229      98.04895       296.89596     -51.187735      75280.275      75505.108      28336.51       47168.598    
    222000   222000         0.31059705     0.32617707     344.25512      250.90691      93.348216      98.030704      296.10054     -105.75215      75028.205      75492.701      28260.592      47232.109    
    223000   223000         0.31094948     0.34058573     345.93019      256.43087      89.499325      98.029408      299.67011      257.85337      76770.064      75637.491      28601.281      47036.209    
    224000   224000         0.31066596     0.33691485     350.8607       260.46876      90.391936      98.029359      297.84761     -411.81806      73602.313      75411.147      28427.337      46983.81     
    225000   225000         0.31055348     0.30829297     350.42217      251.67139      98.750779      98.031976      296.62033     -269.35574      74229.892      75412.987      28310.203      47102.784    
    226000   226000         0.31106703     0.29295222     351.296        247.19853      104.09746      98.035408      298.06742     -144.58848      74626.432      75261.511      28448.317      46813.193    
    227000   227000         0.31231053     0.28680436     353.1118       246.3659       106.7459       98.028042      296.9282       168.30854      76153.366      75414.102      28339.587      47074.515    
    228000   228000         0.31059787     0.29074603     346.81797      242.07502      104.74295      98.048313      296.41336     -212.25431      74267.578      75199.866      28290.449      46909.417    
    229000   229000         0.31083074     0.35425736     344.56417      258.53211      86.032059      98.051723      297.38078     -39.6446        75202.312      75376.444      28382.782      46993.662    
    230000   230000         0.311151       0.25704692     368.47912      249.80222      118.6769       98.040926      297.25445     -947.95494      71108.776      75272.493      28370.725      46901.768    
    231000   231000         0.31129678     0.29274385     361.4073       257.17061      104.23669      98.024308      298.48575      445.14657      77279.834      75324.61       28488.243      46836.367    
    232000   232000         0.31156458     0.29239658     366.36572      261.90288      104.46284      98.036108      299.02414     -543.75687      73007.541      75395.893      28539.629      46856.264    
    233000   233000         0.30918206     0.33444874     341.00677      250.39473      90.61204       98.016953      296.66261     -135.66892      74541.535      75137.436      28314.238      46823.198    
    234000   234000         0.30914113     0.27836752     361.26642      252.43037      108.83606      98.001914      298.27247      586.77193      77911.819      75334.532      28467.887      46866.645    
    235000   235000         0.31034051     0.28059391     359.28541      250.91345      108.37196      97.984347      295.59168     -417.69884      73489.122      75323.787      28212.026      47111.761    
    236000   236000         0.31148787     0.32669615     345.19629      251.76762      93.42867       97.99029       297.77607     -533.974        73022.244      75367.626      28420.509      46947.117    
    237000   237000         0.31011906     0.30855865     349.70345      251.20313      98.500323      98.004703      295.63864      143.96813      75903.462      75271.108      28216.508      47054.6      
    238000   238000         0.30998116     0.28380831     353.29445      246.23271      107.06174      98.022123      295.44492     -218.82166      74227.74       75188.873      28198.019      46990.855    
    239000   239000         0.31101999     0.27136594     357.66042      245.30382      112.3566       98.031495      295.32994     -453.52311      73298.332      75290.349      28187.044      47103.305    
    240000   240000         0.30977163     0.35681845     340.58832      255.46602      85.1223        98.050321      296.00966      226.32474      76297.579      75303.49       28251.919      47051.571    
    241000   241000         0.30959761     0.36325542     334.72349      251.16533      83.558157      98.040013      296.30833      177.76968      75929.364      75148.543      28280.425      46868.118    
    242000   242000         0.31032966     0.35359345     341.17337      255.13178      86.041594      98.036854      297.57432     -172.22238      74504.437      75260.892      28401.254      46859.639    
    243000   243000         0.30932114     0.35015769     349.34922      262.7384       86.610821      98.045174      298.17921      108.30873      75851.34       75375.614      28458.986      46916.627    
    244000   244000         0.31027113     0.26853955     359.49754      246.22015      113.2774       98.041547      297.3301      -462.63664      73270.204      75302.25       28377.945      46924.305    
    245000   245000         0.30910617     0.3118057      345.56637      248.37826      97.18811       98.036889      298.71742      85.020038      75722.47       75349.035      28510.355      46838.68     
    246000   246000         0.30877306     0.33620534     343.41597      253.38094      90.035028      98.033997      296.08011      41.30726       75572.575      75391.14       28258.643      47132.497    
    247000   247000         0.30869952     0.31171726     342.48895      245.40647      97.082477      98.031521      295.83842      54.546898      75645.375      75405.788      28235.575      47170.213    
    248000   248000         0.30871921     0.32635019     345.79203      253.06209      92.729944      98.025759      296.54782      153.11641      75981.771      75309.235      28303.283      47005.953    
    249000   249000         0.30898144     0.26610448     360.60175      246.75993      113.84181      98.044129      296.03175      375.8371       76918.461      75267.666      28254.028      47013.639    
    250000   250000         0.30837885     0.35973277     340.88778      256.83678      84.051003      98.047904      295.50241     -139.8394       74688.272      75302.491      28203.506      47098.985    
    251000   251000         0.30855359     0.29781157     351.33676      249.74062      101.59614      98.059157      295.62312     -136.54228      74644.184      75243.921      28215.026      47028.895    
    252000   252000         0.31000221     0.28329352     353.42765      246.12354      107.30411      98.059173      296.10287     -290.86951      73995.938      75273.528      28260.815      47012.714    
    253000   253000         0.30884176     0.34312728     342.38759      254.12447      88.263122      98.061497      295.79489      45.397419      75387.955      75188.555      28231.42       46957.134    
    254000   254000         0.31045883     0.27836894     356.11379      246.74387      109.36992      98.065141      296.92896      855.66261      79031.425      75273.085      28339.66       46933.425    
    255000   255000         0.30985651     0.35446784     343.34714      257.63352      85.713619      98.054166      295.65025      153.70622      76022.63       75347.504      28217.616      47129.888    
    256000   256000         0.30881363     0.30596073     348.20677      249.24982      98.956949      98.042762      296.98201      45.275884      75481.49       75282.624      28344.722      46937.902    
    257000   257000         0.30926366     0.32016029     345.19016      250.4958       94.694362      98.030834      295.30762     -63.415752      75019.149      75297.691      28184.915      47112.777    
    258000   258000         0.30930394     0.33084914     339.92247      248.28464      91.637832      98.021055      295.80946     -492.14804      73205.632      75367.302      28232.811      47134.491    
    259000   259000         0.30895895     0.32396293     343.07102      249.5894       93.481623      98.021375      297.56849      447.60268      77385.368      75419.356      28400.697      47018.659    
    260000   260000         0.30832604     0.30483312     342.02488      242.87701      99.147871      98.024656      297.04233      359.88176      76848.716      75268.002      28350.479      46917.522    
    261000   261000         0.30807318     0.29435804     351.67834      249.10225      102.57609      98.009491      296.63905     -98.26893       74794.761      75226.389      28311.99       46914.399    
    262000   262000         0.3087575      0.32729616     342.86724      250.40042      92.466819      98.018782      298.42903      1081.2585      80157.379      75408.151      28482.829      46925.321    
    263000   263000         0.30815092     0.30047378     349.46797      248.92515      100.54282      98.037942      298.07181     -86.519523      75013.354      75393.375      28448.736      46944.639    
    264000   264000         0.30894214     0.27853398     363.08066      254.33544      108.74522      98.041784      297.60538     -348.37266      73889.647      75419.809      28404.219      47015.591    
    265000   265000         0.31041535     0.33342284     349.90047      258.63832      91.262152      98.026358      297.36975      348.43596      77007.319      75476.879      28381.73       47095.149    
    266000   266000         0.30936716     0.32946233     339.96402      247.91918      92.044836      98.023676      297.18701     -306.20842      73937.91       75282.874      28364.288      46918.585    
    267000   267000         0.30973764     0.35965705     335.97604      251.56567      84.410375      98.014521      296.36762      105.38635      75707.778      75244.888      28286.083      46958.805    
    268000   268000         0.31122446     0.2744455      352.33086      241.20539      111.12547      97.993217      296.63328     -23.774591      75222.888      75327.314      28311.439      47015.875    
    269000   269000         0.31264149     0.28972917     352.65775      246.90446      105.75329      98.003028      298.17078     -408.3955       73721.864      75515.666      28458.181      47057.485    
    270000   270000         0.31096918     0.2790834      363.17146      253.96174      109.20971      98.011699      298.55926      443.45535      77483.46       75535.664      28495.259      47040.405    
    271000   271000         0.31080172     0.28458336     353.42803      246.37567      107.05237      98.021731      298.52156      95.824342      76038.785      75617.894      28491.661      47126.233    
    272000   272000         0.31043529     0.29025764     349.13453      244.29032      104.84421      98.029553      298.23306     -40.644332      75316.856      75495.379      28464.126      47031.253    
    273000   273000         0.31052114     0.35114169     347.21669      260.5286       86.688094      98.028121      297.99023     -325.76448      74118.139      75548.999      28440.95       47108.049    
    274000   274000         0.31033444     0.28078587     358.975        250.62677      108.34823      98.031823      297.71971     -73.430351      75282.316      75604.845      28415.13       47189.715    
    275000   275000         0.31061462     0.34414166     341.93132      253.44357      88.48775       98.038918      298.55972      410.15764      77407.94       75606.398      28495.303      47111.095    
    276000   276000         0.30940197     0.3100642      352.75685      254.93896      97.817893      98.02726       299.06189      469.10463      77835.854      75775.399      28543.232      47232.167    
    277000   277000         0.30955694     0.35242938     346.04476      259.93598      86.108782      98.034515      297.94748     -672.77518      72654.082      75609.123      28436.869      47172.254    
    278000   278000         0.31048162     0.28656679     349.71506      243.49379      106.22127      98.03958       297.39389      24.305936      75603.601      75496.841      28384.033      47112.808    
    279000   279000         0.30866724     0.32892727     352.8385       260.83926      91.999243      98.037811      299.64735      426.77891      77539.903      75665.355      28599.11       47066.246    
    280000   280000         0.30879497     0.28872163     359.24446      254.39896      104.8455       98.029973      299.69583     -256.00602      74453.87       75578.329      28603.736      46974.593    
    281000   281000         0.31008994     0.30616209     347.54266      248.25123      99.291427      98.033722      296.80505      416.01249      77387.602      75560.344      28327.833      47232.512    
    282000   282000         0.30942979     0.36938886     334.46871      252.35303      82.115682      98.027468      298.07729     -139.48967      74782.454      75395.136      28449.258      46945.878    
    283000   283000         0.3101251      0.28428131     354.54423      247.59679      106.94744      98.035142      297.68125     -12.168058      75545.306      75598.752      28411.459      47187.292    
    284000   284000         0.3108445      0.28073304     356.74518      248.1919       108.55328      98.037738      299.07467     -125.01289      75021.852      75570.948      28544.451      47026.497    
    285000   285000         0.30974141     0.35512488     340.85506      255.36567      85.489393      98.015342      297.72597     -633.79148      72721.31       75505.122      28415.728      47089.395    
    286000   286000         0.31014473     0.34168847     337.8536       248.88952      88.964075      98.012301      296.15259      223.43791      76449.289      75467.879      28265.561      47202.319    
    287000   287000         0.31119694     0.28402875     348.30134      240.89568      107.40567      98.028912      297.44528     -205.72374      74659.292      75562.895      28388.938      47173.957    
    288000   288000         0.30961104     0.34775361     347.77841      260.49849      87.279925      98.032386      297.49112     -426.29557      73479.128      75351.553      28393.313      46958.239    
    289000   289000         0.30982474     0.30952872     349.49445      251.38186      98.112587      98.018845      297.81822      337.21346      77044.532      75563.384      28424.533      47138.851    
    290000   290000         0.30957183     0.32884856     343.41367      251.1544       92.259267      98.00416       298.65501      292.76537      76813.882      75527.965      28504.398      47023.567    
    291000   291000         0.31056006     0.36116435     339.63945      255.37896      84.260491      97.990338      297.9168       505.98979      77775.225      75552.759      28433.941      47118.818    
    292000   292000         0.31070245     0.3033746      352.06033      251.70668      100.35364      97.986823      295.25514     -354.71514      73849.261      75407.282      28179.905      47227.377    
    293000   293000         0.31179932     0.35512169     340.09609      254.05857      86.037526      97.991849      296.32901     -98.454143      75018.267      75450.709      28282.399      47168.31     
    294000   294000         0.31209758     0.32340842     348.64079      254.06468      94.576111      98.003678      296.27442     -5.4497941      75449.611      75473.548      28277.188      47196.36     
    295000   295000         0.31167318     0.30704067     346.05789      246.55416      99.503735      98.024776      296.38919     -169.073        74612.655      75355.277      28288.143      47067.134    
    296000   296000         0.31072121     0.32279431     343.71888      249.36032      94.358561      98.024872      297.59107     -379.76941      73845.274      75513.341      28402.853      47110.488    
    297000   297000         0.31061169     0.28605023     358.51019      252.08538      106.42481      98.009328      298.35511      94.112154      76004.106      75590.736      28475.775      47114.961    
    298000   298000         0.3106061      0.30177308     352.3395       251.47523      100.86427      97.995893      297.80507     -15.327399      75367.59       75434.913      28423.277      47011.636    
    299000   299000         0.31191256     0.29110911     358.37139      253.37261      104.99878      97.995741      299.03905      595.06494      78056.424      75442.711      28541.051      46901.66     
    300000   300000         0.31110244     0.3049149      347.57206      247.57125      100.00081      98.011884      297.0624       10.771311      75510.188      75462.877      28352.395      47110.482    
    301000   301000         0.31082152     0.31850133     350.69453      255.0397       95.654831      98.018279      296.93263      152.64082      76001.128      75330.681      28340.009      46990.672    
    302000   302000         0.31112125     0.31853263     351.44181      255.70057      95.741237      98.021937      298.40394     -40.959299      75250.068      75429.974      28480.435      46949.54     
    303000   303000         0.31120087     0.34279431     348.93535      259.94323      88.992114      98.026685      298.86403     -286.18483      74096.187      75353.201      28524.347      46828.854    
    304000   304000         0.31096728     0.30318421     350.27263      249.72424      100.54839      98.031808      298.20612      273.63053      76570.262      75368.39       28461.555      46906.835    
    305000   305000         0.30982979     0.36686602     330.74698      247.96462      82.782356      98.02167       294.03869     -255.48782      74001.063      75123.246      28063.804      47059.442    
    306000   306000         0.31112012     0.31980262     351.38809      256.04108      95.347011      98.00788       297.40465     -116.37004      74947.275      75458.408      28385.06       47073.348    
    307000   307000         0.31066531     0.29088781     352.88361      248.2032       104.6804       98.016266      295.15776     -206.71972      74362.395      75270.373      28170.612      47099.762    
    308000   308000         0.3110627      0.27435555     359.43966      248.31173      111.12793      98.014213      296.76764     -6.5414017      75212.372      75241.104      28324.263      46916.841    
    309000   309000         0.30947625     0.32575766     345.60146      252.48122      93.120236      98.019249      296.88167      19.494518      75394.354      75308.728      28335.146      46973.582    
    310000   310000         0.31109986     0.29813326     354.5873       252.31447      102.27283      98.010111      299.22753     -598.76921      73050.468      75680.451      28559.041      47121.41     
    311000   311000         0.31118525     0.28544326     355.53648      248.66939      106.86709      98.026787      297.44627     -85.814557      75243.134      75620.059      28389.032      47231.027    
    312000   312000         0.31075948     0.30531661     348.6011       248.81354      99.787564      98.039811      297.90194      559.03094      78126.137      75670.696      28432.523      47238.173    
    313000   313000         0.31101414     0.37669548     337.61935      256.68071      80.938646      98.031625      299.38801      574.68259      78029.154      75504.967      28574.357      46930.61     
    314000   314000         0.31150999     0.30259986     356.84898      255.91967      100.92932      98.042429      297.60118     -27.244528      75482.966      75602.633      28403.817      47198.815    
    315000   315000         0.31168363     0.29304573     348.96048      244.67231      104.28817      98.052         296.33439     -44.707714      75140.498      75336.869      28282.912      47053.957    
    316000   316000         0.31184548     0.3090282      359.02755      260.08115      98.946398      98.052493      299.50928     -201.6019       74867.636      75753.135      28585.931      47167.204    
    317000   317000         0.31218162     0.3181085      344.43342      248.20723      96.22619       98.053081      300.04572      217.93163      76729.073      75771.848      28637.131      47134.717    
    318000   318000         0.31188159     0.26394442     360.11662      244.25627      115.86035      98.052253      299.1284       506.1881       77870.359      75647.021      28549.579      47097.442    
    319000   319000         0.31111782     0.29246093     351.49808      247.17375      104.32433      98.068285      298.3193       61.911357      75911.232      75639.298      28472.357      47166.941    
    320000   320000         0.31054121     0.34610319     348.57958      260.59341      87.986167      98.062004      298.94054     -382.17187      73933.164      75611.783      28531.65       47080.134    
    321000   321000         0.31171321     0.28405087     360.393        252.77382      107.61918      98.068741      298.70689      364.74684      77367.011      75764.928      28509.349      47255.578    
[...]
    932000   932000         0.30804953     0.33593981     343.81993      253.9633       89.856628      97.992092      298.53154     -183.23241      74615.405      75420.219      28492.614      46927.606    
    933000   933000         0.30837053     0.32870416     350.23538      258.30814      91.927236      97.988824      298.17448     -191.78378      74705.759      75548.134      28458.535      47089.599    
    934000   934000         0.30856778     0.29059702     351.57992      247.5287       104.05122      97.991352      298.13726     -20.242212      75443.252      75532.162      28454.982      47077.18     
    935000   935000         0.30842648     0.32269674     348.29928      254.63768      93.661597      97.995127      298.3107      -108.15737      75057.496      75532.557      28471.536      47061.021    
    936000   936000         0.30801598     0.31784269     344.78951      249.82283      94.966688      97.996432      295.99641     -325.40304      73939.627      75368.9        28250.654      47118.246    
    937000   937000         0.30804893     0.29003847     355.09232      251.00571      104.0866       98.001053      295.47064     -41.454131      75160.95       75343.03       28200.474      47142.556    
    938000   938000         0.30832554     0.26083706     360.28775      244.44426      115.84349      98.00121       298.66515     -323.04228      73898.696      75317.599      28505.366      46812.234    
    939000   939000         0.30789512     0.36120696     338.60484      255.06908      83.535754      97.999916      295.51042     -8.9073857      75274.09       75313.214      28204.27       47108.944    
    940000   940000         0.30806898     0.34537927     335.43906      248.02467      87.414391      98.001161      294.24519     -184.23465      74661.28       75470.496      28083.513      47386.983    
    941000   941000         0.30784975     0.33088761     341.18775      250.00532      91.18243       98.006046      296.68592     -740.41898      72156.898      75409.051      28316.463      47092.589    
    942000   942000         0.30822194     0.31060405     351.98673      254.73311      97.253622      98.005253      298.81141     -71.086501      75192.475      75504.709      28519.325      46985.383    
    943000   943000         0.30787307     0.32264734     339.88515      246.36589      93.519257      98.007076      296.6652      -807.19554      71847.039      75392.496      28314.485      47078.011    
    944000   944000         0.30794985     0.32557217     348.70147      256.00213      92.699346      98.004033      297.28764     -212.68323      74477.626      75411.798      28373.892      47037.905    
    945000   945000         0.30827937     0.28929694     348.2256       243.78914      104.43646      98.005738      296.52666      181.04819      76116.454      75321.233      28301.263      47019.97     
    946000   946000         0.30809754     0.29102337     354.59819      250.84452      103.75366      98.003834      296.67011      76.410137      75847.205      75511.588      28314.954      47196.634    
    947000   947000         0.3080123      0.32343225     345.90586      252.57376      93.332099      98.004563      297.41101      598.11377      78096.256      75469.151      28385.668      47083.484    
    948000   948000         0.30793986     0.33970016     342.3068       253.46585      88.840954      98.003832      297.09791      18.681435      75507.664      75425.609      28355.785      47069.825    
    949000   949000         0.30783184     0.3183989      335.76963      241.02002      94.749611      98.002116      296.25742     -234.1532       74328.481      75356.955      28275.565      47081.39     
    950000   950000         0.30793693     0.28408406     354.80346      248.57382      106.22964      98.001062      298.85099      214.53213      76616.849      75674.556      28523.102      47151.454    
    951000   951000         0.30801553     0.35996527     337.91375      254.06007      83.85368       97.996401      299.60326      396.81955      77354.419      75611.462      28594.901      47016.561    
    952000   952000         0.30799644     0.30260235     351.83197      252.08844      99.74353       97.996672      298.28667     -1052.5713      70891.235      75514.46       28469.242      47045.218    
    953000   953000         0.30778036     0.35199232     342.41151      256.7249       85.686604      97.995294      298.69016     -299.72038      74140.714      75457.18       28507.753      46949.428    
    954000   954000         0.30775672     0.28118719     351.96428      244.71073      107.25355      97.994038      296.08367     -302.69881      74199.846      75529.394      28258.982      47270.412    
    955000   955000         0.30751647     0.34052223     344.08304      255.58758      88.495461      97.993684      298.41318      215.55254      76366.797      75420.022      28481.317      46938.705    
    956000   956000         0.30762125     0.30625776     350.26689      251.83569      98.431201      97.994916      297.09338     -9.1635996      75414.62       75454.869      28355.352      47099.517    
    957000   957000         0.30764248     0.28668225     350.52298      245.36739      105.15559      97.991151      296.35539      346.01288      76901.161      75381.363      28284.917      47096.447    
    958000   958000         0.3078834      0.26164234     357.79191      242.48143      115.31048      97.991979      297.07829     -172.68516      74817.674      75576.162      28353.912      47222.25     
    959000   959000         0.30803532     0.28467646     355.65595      249.61937      106.03658      97.995637      298.54822     -1109.4587      70666.108      75539.2        28494.205      47044.995    
    960000   960000         0.30793531     0.32491352     342.73418      249.86147      92.872704      97.993301      295.72836      417.3573       77150.034      75316.869      28225.071      47091.798    
    961000   961000         0.30765843     0.37049422     337.04807      255.67446      81.373606      97.993255      296.56986     -334.92698      73887.091      75358.196      28305.386      47052.81     
    962000   962000         0.30790839     0.32260477     353.0748       259.54618      93.528624      97.992716      297.52145     -560.85886      72928.827      75392.296      28396.208      46996.087    
    963000   963000         0.30795896     0.31552746     347.10765      251.46655      95.641104      97.991611      299.04184     -231.59951      74400.262      75417.52       28541.318      46876.202    
    964000   964000         0.30781215     0.35674062     343.32171      258.77019      84.551518      97.991456      297.8259      -382.16947      73770.803      75449.412      28425.266      47024.146    
    965000   965000         0.30801887     0.29483296     351.96696      249.59408      102.37288      97.990425      297.24013      61.983457      75626.064      75353.813      28369.358      46984.455    
    966000   966000         0.30793581     0.32703324     340.47609      248.20698      92.269115      97.991419      298.67225      567.97099      77847.913      75353.206      28506.043      46847.163    
    967000   967000         0.30790256     0.30420481     354.03582      254.85093      99.184895      97.993736      298.05847      344.5372       77046.583      75533.267      28447.463      47085.804    
    968000   968000         0.30798388     0.29061455     351.97734      248.12704      103.8503       97.993463      296.44076     -110.40858      74846.748      75331.697      28293.064      47038.633    
    969000   969000         0.30818487     0.29028382     356.4158       252.37931      104.03649      97.993486      296.69605      412.76672      77099.964      75286.963      28317.43       46969.533    
    970000   970000         0.308024       0.36088224     336.99278      253.35336      83.639416      97.9923        293.89956      471.52918      77385.569      75314.464      28050.525      47263.939    
    971000   971000         0.30803043     0.31041347     347.09024      249.85211      97.238123      97.990396      295.78012     -244.96664      74269.523      75345.494      28230.01       47115.483    
    972000   972000         0.30801877     0.33873152     346.8624       257.75707      89.105328      97.990078      296.72161     -95.263497      75002.322      75420.749      28319.869      47100.88     
    973000   973000         0.30800881     0.28686038     352.27224      247.05728      105.21496      97.990713      296.74483     -93.074814      74908.811      75317.625      28322.085      46995.54     
    974000   974000         0.30794659     0.29670544     349.87489      248.16795      101.70694      97.994271      299.00869      589.64231      77866.038      75276.143      28538.154      46737.989    
    975000   975000         0.30808744     0.26275035     358.40728      243.5035       114.90378      97.994933      297.97535     -312.33482      74160.238      75532.111      28439.529      47092.582    
    976000   976000         0.30812271     0.27206568     366.95166      255.9694       110.98226      97.994933      297.27938     -65.885609      75229.865      75519.255      28373.105      47146.151    
    977000   977000         0.30782649     0.3256937      349.89805      257.27742      92.620638      97.996628      297.41287     -210.27799      74429.079      75352.687      28385.845      46966.841    
    978000   978000         0.3079441      0.29044609     347.33992      243.44046      103.89946      97.995681      297.08661     -434.30981      73377.157      75284.783      28354.706      46930.077    
    979000   979000         0.3080237      0.30313024     345.06294      245.48467      99.578266      97.996302      298.08787     -101.18867      74888.927      75333.379      28450.269      46883.11     
    980000   980000         0.30793684     0.30016595     353.22491      252.69481      100.5301       97.993191      297.54188     -288.96095      74086.445      75355.653      28398.158      46957.495    
    981000   981000         0.3075922      0.31130566     348.47731      251.65172      96.825593      97.994537      297.8525      -856.14127      71637.205      75397.647      28427.804      46969.843    
    982000   982000         0.30779527     0.29793133     348.18677      246.95068      101.23609      97.991764      295.76663     -225.18581      74144.071      75133.158      28228.724      46904.434    
    983000   983000         0.30772058     0.33274537     344.76762      254.14535      90.62227       97.991954      297.29505     -601.96472      72577.66       75221.679      28374.599      46847.079    
    984000   984000         0.30778864     0.30519503     349.03158      250.20965      98.821922      97.989188      296.69339     -149.82817      74517.389      75175.481      28317.176      46858.306    
    985000   985000         0.30828672     0.26844952     363.26894      250.73559      112.53335      97.991653      296.62561     -231.68579      74506.455      75524.092      28310.707      47213.385    
    986000   986000         0.30769163     0.34017267     345.96381      257.32677      88.637044      97.993891      297.5478      -100.75431      74965.456      75408          28398.723      47009.277    
    987000   987000         0.30785298     0.28947083     348.57912      244.35814      104.22098      97.997865      297.27866      144.62822      76109.462      75474.209      28373.035      47101.174    
    988000   988000         0.30784782     0.27978871     360.98709      253.16199      107.8251       97.997271      298.17606     -447.02492      73524.215      75487.689      28458.685      47029.004    
    989000   989000         0.30773186     0.32930392     340.71345      249.13262      91.580836      98.000669      297.53612     -89.670044      74821.637      75215.496      28397.608      46817.888    
    990000   990000         0.30785729     0.30592931     354.75235      256.1332       98.619153      98.001541      297.9587      -285.47892      74154.166      75408.079      28437.94       46970.139    
    991000   991000         0.30793887     0.35776653     338.98513      254.63302      84.352106      98.001139      297.97287      32.037207      75477.212      75336.495      28439.293      46897.202    
    992000   992000         0.30806573     0.36198281     333.95228      250.55359      83.398685      97.994964      296.05328      307.82479      76614.219      75262.156      28256.082      47006.074    
    993000   993000         0.3082094      0.30115994     347.40305      247.11993      100.28312      97.989413      296.53189      68.353921      75569.207      75268.975      28301.762      46967.213    
    994000   994000         0.30821423     0.32411176     354.28495      261.10245      93.182499      97.988806      297.9894      -378.17173      73800.644      75461.694      28440.871      47020.823    
    995000   995000         0.30813504     0.35329043     338.86609      253.40215      85.463943      97.988184      296.91441     -123.53472      74741.029      75283.632      28338.271      46945.361    
    996000   996000         0.30790684     0.30314011     354.58808      255.05973      99.528345      97.987539      297.59088      180.81782      76083.108      75288.899      28402.835      46886.064    
    997000   997000         0.3079561      0.32678717     338.0744       245.73868      92.335718      97.981915      295.3178      -250.16359      74082.482      75181.28       28185.886      46995.394    
    998000   998000         0.3082299      0.30974088     346.48506      248.98561      97.499454      97.977409      297.27006     -305.32042      73981.513      75322.577      28372.214      46950.363    
    999000   999000         0.30776627     0.29828986     348.8673       247.77467      101.09263      97.979894      297.17537     -331.67768      73717.18       75174.013      28363.177      46810.836    
   1000000   1000000        0.30782902     0.35881328     342.26315      258.20695      84.056204      97.978034      295.172        541.31156      77598.945      75221.334      28171.97       47049.363    
   1001000   1001000        0.30804406     0.29514521     355.35242      253.09179      102.26062      97.978627      298.07804     -426.6683       73511.164      75385.226      28449.33       46935.896    
   1002000   1002000        0.30811572     0.32328859     338.44521      245.06439      93.380817      97.979267      297.00918     -463.07257      73383.859      75417.82       28347.316      47070.504    
   1003000   1003000        0.30825782     0.31647276     353.88452      258.44454      95.439976      97.98341       298.27716      306.30017      76861.834      75516.467      28468.335      47048.133    
   1004000   1004000        0.30802726     0.30037269     352.05359      251.57185      100.48174      97.984737      296.60895      226.33105      76414.838      75420.721      28309.116      47111.605    
   1005000   1005000        0.30795165     0.36541396     336.81169      254.23432      82.577371      97.985914      298.14897     -335.11558      73919.349      75391.282      28456.1        46935.183    
   1006000   1006000        0.30810128     0.29033226     347.27196      243.28618      103.98578      97.988643      298.1373      -19.917837      75147.556      75235.041      28454.986      46780.055    
   1007000   1007000        0.30811242     0.33781984     350.59911      261.22988      89.369231      97.985986      297.89504     -193.97246      74553.891      75405.88       28431.865      46974.015    
   1008000   1008000        0.30831812     0.31657966     351.89312      256.46414      95.428985      97.986054      298.07271      412.47325      77251.96       75440.248      28448.822      46991.426    
   1009000   1009000        0.30818337     0.30123038     347.72447      247.47473      100.24974      97.987982      296.15105      83.89157       75722.688      75354.21       28265.414      47088.797    
   1010000   1010000        0.30787394     0.39620094     331.3815       255.23861      76.142887      97.987779      297.56501     -283.38064      74152.757      75397.454      28400.365      46997.089    
   1011000   1011000        0.30809701     0.29176078     353.15072      249.68084      103.46988      97.983593      298.04446     -279.69423      74295.257      75523.762      28446.125      47077.637    
   1012000   1012000        0.30795714     0.29553922     352.70037      250.59882      102.10155      97.984456      297.58676     -611.26131      72731.707      75416.56       28402.442      47014.118    
   1013000   1013000        0.30785906     0.32094738     343.4135       249.42641      93.987088      97.982854      296.63978      45.887499      75520.498      75318.946      28312.059      47006.886    
   1014000   1014000        0.30815861     0.27833693     359.97853      251.49994      108.47858      97.980701      299.02561      415.2231       77578.258      75754.468      28539.769      47214.698    
   1015000   1015000        0.30801726     0.43721064     332.94404      263.91911      69.024928      97.976434      298.62472     -192.15423      74745.049      75589.051      28501.507      47087.544    
   1016000   1016000        0.30833998     0.29802198     356.32565      254.95658      101.36907      97.976951      299.89123     -454.07212      73714.91       75709.338      28622.386      47086.952    
   1017000   1017000        0.30816279     0.33838639     347.97843      258.75152      89.226906      97.97799       299.15874      113.16999      76156.95       75659.872      28552.476      47107.396    
   1018000   1018000        0.30802007     0.31255956     348.89904      252.34319      96.555855      97.978862      298.32272      419.87741      77174.878      75330.644      28472.683      46857.96     
   1019000   1019000        0.30804029     0.33758767     341.23355      251.83055      89.402991      97.97857       298.18187     -270.31716      74216.3        75403.618      28459.24       46944.378    
   1020000   1020000        0.30790461     0.32352363     347.15678      253.90705      93.249725      97.979986      297.2678       242.32226      76542.661      75478.305      28371.999      47106.306    
   1021000   1021000        0.30792916     0.31853886     343.60149      248.88201      94.719481      97.983041      298.00395     -338.13146      73878.732      75363.912      28442.259      46921.652    
Loop time of 12799.9 on 32 procs for 1000000 steps with 32020 atoms

Performance: 6.750 ns/day, 3.556 hours/ns, 78.126 timesteps/s, 2.502 Matom-step/s
99.5% CPU use with 32 MPI tasks x 1 OpenMP threads

MPI task timing breakdown:
Section |  min time  |  avg time  |  max time  |%varavg| %total
---------------------------------------------------------------
Pair    | 7995       | 8405.1     | 8950.5     | 299.7 | 65.67
Bond    | 162.61     | 175.66     | 188.53     |  52.5 |  1.37
Kspace  | 2230.5     | 2764.9     | 3168.4     | 521.6 | 21.60
Neigh   | 543.56     | 554.18     | 557.91     |  13.1 |  4.33
Comm    | 508.07     | 597.27     | 728.29     | 224.9 |  4.67
Output  | 0.18255    | 0.19341    | 0.34702    |   6.4 |  0.00
Modify  | 200.97     | 273.84     | 350.07     | 252.0 |  2.14
Other   |            | 28.77      |            |       |  0.22

Nlocal:        1000.62 ave        1052 max         939 min
Histogram: 1 1 1 4 5 5 10 2 1 2
Nghost:        11927.5 ave       12014 max       11798 min
Histogram: 2 2 3 4 1 2 2 2 10 4
Neighs:         611114 ave      647787 max      566212 min
Histogram: 1 1 3 3 5 6 3 7 2 1

Total # of neighbors = 19555644
Ave neighs/atom = 610.73217
Ave special neighs/atom = 10.738289
Neighbor list builds = 40366
Dangerous builds = 0
Total wall time: 3:37:46
