units real
atom_style full
boundary p p p

# styles
pair_style lj/charmm/coul/long 8.0 12.0
kspace_style pppm 1e-6
dielectric 1.000000
bond_style harmonic
angle_style harmonic
dihedral_style fourier
improper_style cvff
special_bonds amber
pair_modify mix arithmetic
neighbor 2.0 bin
neigh_modify delay 0 every 1 check yes

# system definition
read_data ../final.data
Reading data file ...
  orthogonal box = (-33.330319 -36.534749 -30.91591) to (33.330319 36.534749 30.91591)
  4 by 4 by 2 MPI processor grid
  reading atoms ...
  32020 atoms
  reading velocities ...
  32020 velocities
  scanning bonds ...
  3 = max bonds/atom
  scanning angles ...
  6 = max angles/atom
  scanning dihedrals ...
  15 = max dihedrals/atom
  scanning impropers ...
  1 = max impropers/atom
  reading bonds ...
  32010 bonds
  reading angles ...
  60000 angles
  reading dihedrals ...
  79910 dihedrals
  reading impropers ...
  2000 impropers
Finding 1-2 1-3 1-4 neighbors ...
  special bond factors lj:    0        0        0.5     
  special bond factors coul:  0        0        0.8333333333333334
     4 = max # of 1-2 neighbors
     8 = max # of 1-3 neighbors
    17 = max # of 1-4 neighbors
    20 = max # of special neighbors
  special bonds CPU = 0.077 seconds
  read_data CPU = 0.568 seconds
# do not reset velocities

# vars
variable dt equal 1.0
variable tLog equal 1000
variable nEvery equal 10
variable nRepeat equal 100
variable boolDump equal 0
variable tDump equal 1000

variable tPreeq equal 10000
variable tPrerun equal 10000
variable tDelay equal 1000
variable tTCrun equal 1000000

# desiered temperature difference
variable Tavg equal 300.0
variable TempDiff equal 100.0
variable Thi equal ${Tavg}+(${TempDiff}/2)
variable Thi equal 300+(${TempDiff}/2)
variable Thi equal 300+(100/2)
variable Tlo equal ${Tavg}-(${TempDiff}/2)
variable Tlo equal 300-(${TempDiff}/2)
variable Tlo equal 300-(100/2)

# defining regions
variable hot_lo equal (lz*0)+zlo
variable hot_hi equal (lz*0.05)+zlo
variable cold_lo equal (lz*0.50)+zlo
variable cold_hi equal (lz*0.55)+zlo

# define heating and cooling block regions
region hot block INF INF INF INF ${hot_lo} ${hot_hi} units box
region hot block INF INF INF INF -30.9159097549249 ${hot_hi} units box
region hot block INF INF INF INF -30.9159097549249 -27.8243187794324 units box
region cold block INF INF INF INF ${cold_lo} ${cold_hi} units box
region cold block INF INF INF INF 0 ${cold_hi} units box
region cold block INF INF INF INF 0 3.0915909754925 units box
compute Thot all temp/region hot
compute Tcold all temp/region cold

# STEP 1 - 1st equilibration (nve)
# 1a - thermo output for md1
thermo_style custom step time temp c_Thot c_Tcold press enthalpy etotal ke pe
thermo_modify colname c_Thot Temp_hot colname c_Tcold Temp_cold
thermo_modify flush yes
thermo ${tLog}
thermo 1000

# 1b - nve equilibration
timestep ${dt}
timestep 1
fix md1 all nve
run ${tPreeq}
run 10000
PPPM initialization ...
  using 12-bit tables for long-range coulomb (src/kspace.cpp:342)
  G vector (1/distance) = 0.25629853
  grid = 50 54 48
  stencil order = 5
  estimated absolute RMS force accuracy = 0.00035481857
  estimated relative force accuracy = 1.0685256e-06
  using double precision FFTW3
  3d grid and FFT values/proc = 11780 5400
Generated 21 of 21 mixed pair_coeff terms from arithmetic mixing rule
Neighbor list info ...
  update: every = 1 steps, delay = 0 steps, check = yes
  max neighbors/atom: 2000, page size: 100000
  master list distance cutoff = 14
  ghost atom cutoff = 14
  binsize = 7, bins = 10 11 9
  1 neighbor lists, perpetual/occasional/extra = 1 0 0
  (1) pair lj/charmm/coul/long, perpetual
      attributes: half, newton on
      pair build: half/bin/newton
      stencil: half/bin/3d
      bin: standard
Per MPI rank memory allocation (min/avg/max) = 18.11 | 18.46 | 18.65 Mbytes
   Step          Time           Temp         Temp_hot      Temp_cold        Press         Enthalpy        TotEng         KinEng         PotEng    
         0   0              301.29534      308.57372      305.52237     -364.57431      74529.36       76130.686      28756.398      47374.288    
      1000   1000           299.73111      305.48076      299.49794      451.01357      78117.83       76136.836      28607.104      47529.732    
      2000   2000           302.13503      303.53336      305.21352     -107.20829      75658.758      76129.651      28836.539      47293.112    
      3000   3000           300.52217      293.75947      308.38789     -10.38982       76094.18       76139.816      28682.604      47457.211    
      4000   4000           301.97549      304.83987      305.84364     -83.902929      75766.292      76134.82       28821.313      47313.507    
      5000   5000           301.52743      306.45925      309.86679      138.19615      76737.298      76130.297      28778.549      47351.748    
      6000   6000           302.03756      309.88619      304.61565      328.21064      77575.609      76134.005      28827.237      47306.768    
      7000   7000           301.31761      307.67963      302.405       -357.49989      74566.936      76137.188      28758.523      47378.665    
      8000   8000           301.39707      303.61764      302.10618      182.01363      76932.472      76133.011      28766.107      47366.904    
      9000   9000           301.24745      313.88084      296.72653      254.07614      77242.877      76126.895      28751.827      47375.068    
     10000   10000          300.81516      306.50925      295.28359     -299.6309       74825.025      76141.099      28710.568      47430.531    
Loop time of 128.628 on 32 procs for 10000 steps with 32020 atoms

Performance: 6.717 ns/day, 3.573 hours/ns, 77.743 timesteps/s, 2.489 Matom-step/s
99.5% CPU use with 32 MPI tasks x 1 OpenMP threads

MPI task timing breakdown:
Section |  min time  |  avg time  |  max time  |%varavg| %total
---------------------------------------------------------------
Pair    | 80.499     | 85.312     | 91.794     |  31.8 | 66.32
Bond    | 1.6378     | 1.7579     | 1.8702     |   5.2 |  1.37
Kspace  | 21.842     | 28.095     | 33.096     |  54.0 | 21.84
Neigh   | 5.3489     | 5.5262     | 5.5827     |   2.2 |  4.30
Comm    | 4.7221     | 6.3571     | 8.4263     |  37.4 |  4.94
Output  | 0.00099868 | 0.0017684  | 0.0038663  |   1.6 |  0.00
Modify  | 0.052748   | 0.056855   | 0.071482   |   1.6 |  0.04
Other   |            | 1.522      |            |       |  1.18

Nlocal:        1000.62 ave        1034 max         962 min
Histogram: 1 4 4 2 2 3 6 6 1 3
Nghost:        11933.7 ave       11992 max       11882 min
Histogram: 2 5 4 5 1 4 3 1 4 3
Neighs:         610995 ave      643883 max      578814 min
Histogram: 3 0 6 1 5 6 3 3 3 2

Total # of neighbors = 19551834
Ave neighs/atom = 610.61318
Ave special neighs/atom = 10.738289
Neighbor list builds = 403
Dangerous builds = 0
unfix md1

# STEP 2 - pre run
# 2a - impose nve
fix md2 all nve

# 2b - impose thermostating
fix hot all langevin ${Thi} ${Thi} 100.0 57485 tally yes
fix hot all langevin 350 ${Thi} 100.0 57485 tally yes
fix hot all langevin 350 350 100.0 57485 tally yes
fix cold all langevin ${Tlo} ${Tlo} 100.0 12490 tally yes
fix cold all langevin 250 ${Tlo} 100.0 12490 tally yes
fix cold all langevin 250 250 100.0 12490 tally yes
fix_modify hot temp Thot
fix_modify cold temp Tcold
# calculate tdiff of regions
variable tdiff equal c_Thot-c_Tcold

# 2c - thermo output
thermo_style custom step time temp c_Thot c_Tcold f_hot f_cold v_tdiff press enthalpy etotal ke pe
WARNING: New thermo_style command, previous thermo_modify settings will be lost (src/output.cpp:904)
thermo_modify colname c_Thot Temp_hot colname c_Tcold Temp_cold               colname f_hot E_hot colname f_cold E_cold               colname v_tdiff dTemp_step
thermo_modify flush yes
thermo ${tLog}
thermo 1000

# 2d - pre run
run ${tPrerun}
run 10000
PPPM initialization ...
  using 12-bit tables for long-range coulomb (src/kspace.cpp:342)
  G vector (1/distance) = 0.25629853
  grid = 50 54 48
  stencil order = 5
  estimated absolute RMS force accuracy = 0.00035481857
  estimated relative force accuracy = 1.0685256e-06
  using double precision FFTW3
  3d grid and FFT values/proc = 11780 5400
Generated 21 of 21 mixed pair_coeff terms from arithmetic mixing rule
Per MPI rank memory allocation (min/avg/max) = 19.16 | 19.32 | 19.4 Mbytes
   Step          Time           Temp         Temp_hot      Temp_cold        E_hot          E_cold       dTemp_step       Press         Enthalpy        TotEng         KinEng         PotEng    
     10000   10000          300.81516      305.50782      295.28359     -0             -0              10.224232     -299.6309       74825.025      76141.099      28710.568      47430.531    
     11000   11000          299.61168      352.02059      255.85357     -1111.1825      1213.1211      96.167014     -312.62544      74669.615      76042.764      28595.705      47447.059    
     12000   12000          299.74081      352.29213      252.9568      -1411.0826      1641.8273      99.335325     -555.68443      73485.573      75926.314      28608.029      47318.285    
     13000   13000          300.17587      354.5302       252.68123     -1737.0218      1875.0503      101.84898     -59.404625      75757.315      76018.239      28649.553      47368.686    
     14000   14000          300.70601      351.05577      252.43866     -1944.4792      2124.5381      98.617105     -502.37331      73770.128      75976.71       28700.15       47276.56     
     15000   15000          301.81853      360.18004      258.27948     -2047.3636      2297.4844      101.90056     -79.089683      75562.134      75909.521      28806.332      47103.189    
     16000   16000          298.87405      362.26617      255.03378     -2226.0684      2523.3264      107.23239      24.776233      75979.258      75870.433      28525.304      47345.129    
     17000   17000          299.42302      357.6726       247.39713     -2286.0199      2739.7871      110.27548      393.7793       77454.457      75724.854      28577.699      47147.155    
     18000   18000          298.26827      353.7701       249.74225     -2529.4903      2983.413       104.02784     -479.38333      73620.16       75725.763      28467.486      47258.277    
     19000   19000          299.85627      353.83301      252.57957     -2697.1846      3240.2489      101.25344      25.666297      75753.981      75641.247      28619.049      47022.198    
     20000   20000          298.52776      365.2518       249.76155     -2941.852       3446.7648      115.49025     -314.0701       74306.222      75685.717      28492.253      47193.464    
Loop time of 129.113 on 32 procs for 10000 steps with 32020 atoms

Performance: 6.692 ns/day, 3.586 hours/ns, 77.451 timesteps/s, 2.480 Matom-step/s
99.5% CPU use with 32 MPI tasks x 1 OpenMP threads

MPI task timing breakdown:
Section |  min time  |  avg time  |  max time  |%varavg| %total
---------------------------------------------------------------
Pair    | 79.611     | 84.553     | 90.042     |  30.0 | 65.49
Bond    | 1.6219     | 1.7659     | 1.9224     |   5.7 |  1.37
Kspace  | 22.145     | 27.388     | 32.54      |  51.5 | 21.21
Neigh   | 5.3155     | 5.5144     | 5.5728     |   2.5 |  4.27
Comm    | 4.8658     | 6.6609     | 8.9312     |  42.0 |  5.16
Output  | 0.0012149  | 0.0013345  | 0.0031392  |   0.9 |  0.00
Modify  | 1.7995     | 2.9379     | 4.4417     |  54.7 |  2.28
Other   |            | 0.2924     |            |       |  0.23

Nlocal:        1000.62 ave        1036 max         968 min
Histogram: 2 5 4 1 4 5 3 3 2 3
Nghost:        11940.3 ave       12050 max       11880 min
Histogram: 6 3 5 4 5 4 3 1 0 1
Neighs:         611200 ave      649330 max      578951 min
Histogram: 3 3 1 9 3 0 7 5 0 1

Total # of neighbors = 19558415
Ave neighs/atom = 610.81871
Ave special neighs/atom = 10.738289
Neighbor list builds = 402
Dangerous builds = 0
unfix md2

# STEP 3 - md for tc caluclation
# 3a - impose nve
fix md3 all nve

# 3b - calculate and output thermal profile
compute ke all ke/atom
variable temp atom c_ke/(1.5*0.001987204)
compute layers all chunk/atom bin/1d z lower 0.05 units reduced
fix bins all ave/chunk ${nEvery} ${nRepeat} ${tLog} layers v_temp file Tprofile_z_lav.dat
fix bins all ave/chunk 10 ${nRepeat} ${tLog} layers v_temp file Tprofile_z_lav.dat
fix bins all ave/chunk 10 100 ${tLog} layers v_temp file Tprofile_z_lav.dat
fix bins all ave/chunk 10 100 1000 layers v_temp file Tprofile_z_lav.dat

# 3c - reset thermostats to zero energy accumulation
fix hot all langevin ${Thi} ${Thi} 100.0 57485 tally yes
fix hot all langevin 350 ${Thi} 100.0 57485 tally yes
fix hot all langevin 350 350 100.0 57485 tally yes
fix cold all langevin ${Tlo} ${Tlo} 100.0 12490 tally yes
fix cold all langevin 250 ${Tlo} 100.0 12490 tally yes
fix cold all langevin 250 250 100.0 12490 tally yes
fix_modify hot temp Thot
fix_modify cold temp Tcold

# 3c - compute average tdiff
fix ave all ave/time ${nEvery} ${nRepeat} ${tLog} v_tdiff ave running
fix ave all ave/time 10 ${nRepeat} ${tLog} v_tdiff ave running
fix ave all ave/time 10 100 ${tLog} v_tdiff ave running
fix ave all ave/time 10 100 1000 v_tdiff ave running

# 3d - time delay run
variable aTime equal time
variable start_time equal ${aTime}
variable start_time equal 20000
run ${tDelay}
run 1000
PPPM initialization ...
  using 12-bit tables for long-range coulomb (src/kspace.cpp:342)
  G vector (1/distance) = 0.25629853
  grid = 50 54 48
  stencil order = 5
  estimated absolute RMS force accuracy = 0.00035481857
  estimated relative force accuracy = 1.0685256e-06
  using double precision FFTW3
  3d grid and FFT values/proc = 11780 5400
Generated 21 of 21 mixed pair_coeff terms from arithmetic mixing rule
Per MPI rank memory allocation (min/avg/max) = 19.41 | 19.58 | 19.66 Mbytes
   Step          Time           Temp         Temp_hot      Temp_cold        E_hot          E_cold       dTemp_step       Press         Enthalpy        TotEng         KinEng         PotEng    
     20000   20000          298.52776      364.44666      249.76155     -0             -0              114.68511     -314.0701       74306.222      75685.717      28492.253      47193.464    
     21000   21000          300.33562      345.57433      251.03959     -211.44107      114.51251      94.534738      57.862807      76037.547      75783.395      28664.799      47118.596    
Loop time of 12.8043 on 32 procs for 1000 steps with 32020 atoms

Performance: 6.748 ns/day, 3.557 hours/ns, 78.099 timesteps/s, 2.501 Matom-step/s
99.5% CPU use with 32 MPI tasks x 1 OpenMP threads

MPI task timing breakdown:
Section |  min time  |  avg time  |  max time  |%varavg| %total
---------------------------------------------------------------
Pair    | 7.8872     | 8.4563     | 9.1045     |   9.0 | 66.04
Bond    | 0.16087    | 0.17674    | 0.19271    |   1.8 |  1.38
Kspace  | 2.0886     | 2.7182     | 3.2996     |  15.6 | 21.23
Neigh   | 0.54937    | 0.56081    | 0.56413    |   0.4 |  4.38
Comm    | 0.49156    | 0.58784    | 0.73326    |   7.4 |  4.59
Output  | 9.3316e-05 | 0.000103   | 0.00025021 |   0.0 |  0.00
Modify  | 0.19621    | 0.27619    | 0.35827    |   8.6 |  2.16
Other   |            | 0.0281     |            |       |  0.22

Nlocal:        1000.62 ave        1042 max         958 min
Histogram: 2 3 1 5 2 7 6 3 1 2
Nghost:        11935.9 ave       12040 max       11869 min
Histogram: 4 2 6 8 4 1 3 2 0 2
Neighs:         611065 ave      646689 max      570825 min
Histogram: 2 3 1 3 5 3 6 5 2 2

Total # of neighbors = 19554077
Ave neighs/atom = 610.68323
Ave special neighs/atom = 10.738289
Neighbor list builds = 41
Dangerous builds = 0

# 3f - calculate kappa
variable kappa_inst equal (0.5*(abs(f_hot)+abs(f_cold))/(time-${start_time})/(lx*ly)/2.0)*(lz/2.0)/v_tdiff*69478.5785
variable kappa_inst equal (0.5*(abs(f_hot)+abs(f_cold))/(time-20000)/(lx*ly)/2.0)*(lz/2.0)/v_tdiff*69478.5785
variable kappa equal (0.5*(abs(f_hot)+abs(f_cold))/(time-${start_time})/(lx*ly)/2.0)*(lz/2.0)/f_ave*69478.5785
variable kappa equal (0.5*(abs(f_hot)+abs(f_cold))/(time-20000)/(lx*ly)/2.0)*(lz/2.0)/f_ave*69478.5785

# 3e - thermo out
# dump dump_tc all custom 1000 dump.tc_x_ehex.lammpstrj id type mol x y z ix iy iz vx vy vz
thermo_style custom step time v_kappa v_kappa_inst c_Thot c_Tcold v_tdiff f_ave temp press enthalpy etotal ke pe
WARNING: New thermo_style command, previous thermo_modify settings will be lost (src/output.cpp:904)
thermo_modify colname v_kappa kappa colname v_kappa_inst kappa_inst               colname c_Thot Temp_hot colname c_Tcold Temp_cold               colname v_tdiff dTemp_step colname f_ave dTemp
thermo_modify flush yes
thermo ${tLog}
thermo 1000

# 2g - md run for kappa calculation
# optional traj dump
if "${boolDump} == 1" then     "dump tc_dump all atom ${tDump} dump.tc_z.lammpstrj"
run ${tTCrun}
run 1000000
PPPM initialization ...
  using 12-bit tables for long-range coulomb (src/kspace.cpp:342)
  G vector (1/distance) = 0.25629853
  grid = 50 54 48
  stencil order = 5
  estimated absolute RMS force accuracy = 0.00035481857
  estimated relative force accuracy = 1.0685256e-06
  using double precision FFTW3
  3d grid and FFT values/proc = 11780 5400
Generated 21 of 21 mixed pair_coeff terms from arithmetic mixing rule
Per MPI rank memory allocation (min/avg/max) = 19.66 | 19.83 | 19.91 Mbytes
   Step          Time          kappa        kappa_inst      Temp_hot      Temp_cold      dTemp_step       dTemp           Temp          Press         Enthalpy        TotEng         KinEng         PotEng    
     21000   21000          0              0              346.1941       251.03959      95.154508      98.492605      300.33562      57.862807      76037.547      75783.395      28664.799      47118.596    
     22000   22000          0.14892363     0.14052685     356.86048      252.26195      104.59854      98.700945      299.1668      -189.11762      74919.533      75750.197      28553.244      47196.953    
     23000   23000          0.21095903     0.21193253     345.49352      249.47489      96.018631      96.461724      298.26412     -582.17293      73313.833      75870.92       28467.09       47403.83     
     24000   24000          0.25016939     0.20397695     354.92069      236.16268      118.75801      96.829977      297.11176     -17.71093       75582.385      75660.177      28357.106      47303.07     
     25000   25000          0.29537811     0.31111238     341.6524       250.09532      91.557082      96.434163      299.16688     -598.07444      73072.172      75699.104      28553.252      47145.852    
     26000   26000          0.29355415     0.25258602     356.98432      244.93396      112.05036      96.412722      296.11795      212.43733      76537.369      75604.277      28262.254      47342.023    
     27000   27000          0.2554272      0.24415262     351.26809      249.94329      101.3248       96.852315      297.21388     -296.42638      74276.617      75578.615      28366.853      47211.762    
     28000   28000          0.25461521     0.2314983      353.07844      246.90528      106.17316      96.533535      299.02746     -389.36574      73987.195      75697.412      28539.946      47157.467    
     29000   29000          0.25813734     0.27368788     342.36254      251.34806      91.014473      96.497305      298.16459     -271.83837      74451.21       75645.209      28457.591      47187.619    
     30000   30000          0.2585564      0.2677739      348.60406      255.3977       93.206356      96.529148      296.74943     -270.49315      74350.142      75538.233      28322.525      47215.708    
     31000   31000          0.27896382     0.27886317     351.73333      255.42658      96.306748      96.272001      297.60214     -23.914337      75420.864      75525.903      28403.91       47121.994    
     32000   32000          0.28209792     0.25032615     357.38086      248.97234      108.40851      96.198817      299.58749     -81.002619      75370.073      75725.862      28593.396      47132.466    
     33000   33000          0.29457637     0.31816986     341.72872      252.68903      89.039693      96.171146      298.30424     -96.095293      75275.253      75697.334      28470.919      47226.415    
     34000   34000          0.28647111     0.28367793     348.23607      251.09781      97.138262      96.191138      297.31065     -391.76529      73835.577      75556.334      28376.089      47180.245    
     35000   35000          0.29620781     0.28080679     351.4933       249.7547       101.7386       96.448808      298.76422      99.323472      76061.04       75624.78       28514.821      47109.959    
     36000   36000          0.29189292     0.2899309      343.74544      246.4971       97.248338      96.594661      296.24591     -1.4281025      75365.087      75371.36       28274.467      47096.892    
     37000   37000          0.28851328     0.26188181     359.06853      252.71962      106.34891      96.532277      296.95176     -110.82335      74941.172      75427.943      28341.835      47086.108    
     38000   38000          0.28585633     0.29857991     350.0177       257.56998      92.447722      96.562609      295.97616      696.80099      78441.869      75381.299      28248.721      47132.578    
     39000   39000          0.28331889     0.2552379      351.57753      244.43368      107.14385      96.524349      297.33911     -317.69335      74016.962      75412.371      28378.805      47033.566    
     40000   40000          0.2861976      0.28251155     349.86532      251.9549       97.910419      96.649394      297.10361     -137.89723      74840.048      75445.736      28356.329      47089.408    
     41000   41000          0.2878407      0.23481067     365.7941       247.18098      118.61312      96.760552      297.11254     -3.678064       75371.132      75387.288      28357.18       47030.107    
     42000   42000          0.3009785      0.3236948      348.36971      258.29968      90.070032      96.868052      295.36956     -605.39734      72789.231      75448.327      28190.826      47257.501    
     43000   43000          0.30802082     0.27579159     353.10589      244.8324       108.27349      96.944482      298.05165     -426.77644      73423.795      75298.332      28446.811      46851.52     
     44000   44000          0.29622103     0.29100241     347.00589      248.29716      98.708735      96.969753      296.45751     -318.01313      73840.61       75237.424      28294.663      46942.761    
     45000   45000          0.30306228     0.3070055      352.41383      256.81675      95.597086      96.840923      295.27003      211.31891      76136.066      75207.887      28181.327      47026.56     
     46000   46000          0.29700779     0.3418898      345.22589      261.21657      84.009318      96.704297      296.52016      59.747181      75461.101      75198.673      28300.642      46898.03     
     47000   47000          0.29542453     0.31221209     349.6061       258.15633      91.449767      96.646419      296.7444      -927.44928      71306.879      75380.529      28322.044      47058.485    
     48000   48000          0.29907467     0.3171592      337.91447      246.77969      91.134777      96.645539      297.50384     -101.4364       74801.96       75247.5        28394.527      46852.973    
     49000   49000          0.30096131     0.31455303     337.44327      245.1133       92.329962      96.499679      294.5554      -251.04486      74112.344      75215.012      28113.121      47101.891    
     50000   50000          0.30484888     0.30212419     350.57273      253.03002      97.542719      96.670896      299.32088      453.33397      77455.897      75464.712      28567.95       46896.761    
     51000   51000          0.30058537     0.32503537     339.46263      249.9267       89.53593       96.818897      299.3268      -461.93326      73479.412      75508.368      28568.516      46939.853    
     52000   52000          0.30122993     0.27793668     353.60713      248.58284      105.02429      96.903062      297.16849      439.96714      77388.021      75455.547      28362.521      47093.026    
     53000   53000          0.29698864     0.28262593     353.06074      251.21427      101.84648      96.921066      297.20487     -2.4865296      75371.42       75382.342      28365.993      47016.349    
     54000   54000          0.29434969     0.29221711     348.78304      251.15889      97.624153      96.916859      295.828        71.87267       75645.937      75330.25       28234.58       47095.669    
     55000   55000          0.29610325     0.31806184     345.73989      255.55469      90.185194      96.873198      297.76025     -439.75613      73505.086      75436.634      28419          47017.634    
     56000   56000          0.29945012     0.263884       357.08296      247.03311      110.04985      96.979074      298.61044      120.75347      75938.814      75408.427      28500.144      46908.283    
     57000   57000          0.29435404     0.29994911     340.73617      245.6503       95.085869      96.893258      295.00032      185.66147      75992.454      75176.97       28155.584      47021.386    
     58000   58000          0.29862455     0.30015128     348.92181      252.54551      96.376297      96.869027      296.19455     -1007.5278      71002.294      75427.673      28269.565      47158.108    
     59000   59000          0.30390632     0.28719924     341.50962      239.0892       102.42042      96.789914      296.25449     -316.79314      73929.347      75320.802      28275.286      47045.516    
     60000   60000          0.31031204     0.28630708     351.18813      246.3377       104.85042      96.739457      297.61478     -211.48363      74454.968      75383.871      28405.116      46978.755    
     61000   61000          0.30556788     0.28730734     352.46278      249.56068      102.9021       96.752738      296.98387      122.93974      75829.015      75289.025      28344.9        46944.125    
     62000   62000          0.30642888     0.23933762     373.66049      249.64107      124.01942      96.865909      297.58437      136.51726      76126.963      75527.336      28402.214      47125.122    
     63000   63000          0.30335715     0.34415295     346.48647      261.06591      85.420557      96.908007      296.65133      37.50534       75443.879      75279.144      28313.161      46965.982    
     64000   64000          0.30137207     0.31381033     347.88868      254.76092      93.127759      96.971338      298.25935      372.45396      76898.233      75262.298      28466.635      46795.663    
     65000   65000          0.30165019     0.30144064     351.14091      254.11207      97.028839      96.961434      297.52696     -854.2054       71614.395      75366.334      28396.734      46969.6      
     66000   66000          0.30226012     0.35804551     339.04342      257.24024      81.803176      96.90084       296.53937     -550.3834       72831.156      75248.614      28302.476      46946.138    
     67000   67000          0.30376727     0.38144964     329.51257      252.31343      77.199141      96.941269      295.47661      116.50058      75724.811      75213.104      28201.043      47012.061    
     68000   68000          0.30401738     0.30491706     346.78267      250.15268      96.629993      96.915951      296.60369     -240.75677      74209.359      75266.839      28308.614      46958.225    
     69000   69000          0.3056289      0.29939979     347.78224      248.92072      98.861517      96.846593      298.78271      195.07308      76233.902      75377.079      28516.586      46860.494    
     70000   70000          0.30481636     0.33409329     347.64584      259.26888      88.376964      96.865373      297.68178     -590.42328      72783.639      75376.964      28411.51       46965.453    
     71000   71000          0.30169429     0.31115704     345.54512      251.58788      93.957247      96.904248      296.75049      382.93444      76967.871      75285.902      28322.626      46963.277    
     72000   72000          0.30249522     0.30152789     344.47032      247.21983      97.250499      96.939506      297.62115     -402.48451      73585.076      75352.915      28405.724      46947.191    
     73000   73000          0.30344091     0.29226145     351.49551      250.85444      100.64107      96.933219      297.84796      281.34149      76652.001      75416.26       28427.371      46988.889    
     74000   74000          0.30329403     0.30721978     349.86368      254.22073      95.642953      96.880928      295.03945     -456.96489      73316.325      75323.459      28159.32       47164.139    
     75000   75000          0.30239022     0.29580231     350.67698      251.63687      99.040119      96.882419      296.31718      128.94283      75901.774      75335.417      28281.269      47054.147    
     76000   76000          0.3034172      0.37839715     333.92209      256.24599      77.676097      96.871283      297.02822     -165.77427      74685.754      75413.887      28349.133      47064.754    
     77000   77000          0.30414162     0.30613303     351.65861      255.44862      96.209992      96.839944      297.88576     -227.69238      74439.811      75439.907      28430.979      47008.928    
     78000   78000          0.30135536     0.30718559     349.95339      255.02257      94.93082       96.767416      298.3134       221.69386      76422.405      75448.656      28471.794      46976.862    
     79000   79000          0.30586926     0.29002526     352.13199      250.0041       102.12789      96.837677      298.1203      -838.07635      71944.494      75625.589      28453.364      47172.226    
     80000   80000          0.30532276     0.32340378     350.49299      259.09071      91.402279      96.815063      299.45088     -103.29827      75116.549      75570.268      28580.358      46989.91     
     81000   81000          0.30796533     0.30016624     348.44046      249.11968      99.320773      96.805518      298.01244      434.31164      77481.048      75573.415      28443.069      47130.345    
     82000   82000          0.30860572     0.32274527     342.98396      250.41781      92.566152      96.807303      299.15099      421.85202      77455.34       75602.433      28551.735      47050.698    
     83000   83000          0.3134739      0.30716615     348.2426       249.46647      98.776123      96.788539      298.52351     -182.57858      74956.325      75758.268      28491.847      47266.421    
     84000   84000          0.3100621      0.29385859     348.50665      246.34683      102.15982      96.821057      297.45576      386.18958      77434.472      75738.206      28389.938      47348.267    
     85000   85000          0.31036491     0.32848334     345.66875      254.15685      91.511896      96.854161      298.93898      547.83199      78164.368      75758.117      28531.501      47226.617    
     86000   86000          0.31328693     0.31854452     343.87994      248.69415      95.185789      96.783201      299.48974      664.38296      78830.077      75911.897      28584.067      47327.83     
     87000   87000          0.31503245     0.26647821     366.19581      251.7032       114.49261      96.846486      299.66059     -169.67696      75030.704      75775.978      28600.373      47175.606    
     88000   88000          0.31480472     0.32395895     347.17576      253.04058      94.135179      96.872542      298.03946      320.81704      77211.314      75802.185      28445.648      47356.537    
     89000   89000          0.31299886     0.37066463     334.80458      252.98168      81.822901      96.897652      299.11586     -52.578394      75535.316      75766.257      28548.383      47217.875    
     90000   90000          0.31555619     0.3206325      347.58934      252.20948      95.379863      96.914225      300.02445      539.29747      78250.262      75881.498      28635.101      47246.397    
     91000   91000          0.31063992     0.3347221      349.05876      259.08723      89.971531      96.946524      298.31838      285.95393      77209.695      75953.696      28472.269      47481.426    
     92000   92000          0.31250745     0.34288748     346.29304      257.95972      88.33332       96.920536      300.98789     -241.03208      74907.351      75966.04       28727.054      47238.986    
     93000   93000          0.3166962      0.27568297     355.27616      243.94453      111.33162      96.913804      298.8283       826.33136      79624.206      75994.698      28520.937      47473.762    
     94000   94000          0.31349288     0.29382872     352.96402      249.54436      103.41966      96.932559      299.95842      147.1991       76497.309      75850.764      28628.799      47221.965    
     95000   95000          0.31504476     0.31984459     346.00587      250.51289      95.492973      96.947846      298.94808      347.96669      77269.093      75740.714      28532.369      47208.344    
     96000   96000          0.31340541     0.2778076      354.86763      245.49467      109.37296      96.949949      299.64415      824.39161      79344.099      75723.112      28598.804      47124.308    
     97000   97000          0.31355659     0.32618795     348.14173      254.91745      93.224276      96.979737      300.90585      678.62309      78710.995      75730.268      28719.224      47011.044    
     98000   98000          0.31376447     0.26977958     360.71305      247.87255      112.8405       97.022018      299.1098       72.389865      76005.766      75687.807      28547.804      47140.003    
     99000   99000          0.31232165     0.30181568     352.1403       251.74342      100.39689      97.019705      299.14495     -325.65236      74265.383      75695.751      28551.159      47144.591    
    100000   100000         0.31394563     0.31189612     346.90699      249.22097      97.686027      97.048312      298.55239     -179.3848       74879.94       75667.854      28494.604      47173.251    
    101000   101000         0.31239854     0.29122236     354.06262      249.92762      104.13501      97.076137      297.97434     -191.67836      75060.5        75902.412      28439.433      47462.979    
    102000   102000         0.31244823     0.29832324     353.65527      251.98646      101.66881      97.072618      299.6579      -398.60333      73954.356      75705.148      28600.116      47105.032    
    103000   103000         0.31164805     0.34441001     338.47706      250.63383      87.843231      97.077739      299.15329      241.4311       76676.715      75616.273      28551.955      47064.319    
    104000   104000         0.31091767     0.40754501     335.6098       261.54276      74.067042      97.085681      298.61842      137.28242      76383.941      75780.953      28500.906      47280.047    
    105000   105000         0.31450102     0.30374212     353.9027       253.36077      100.54193      97.102442      299.79759     -273.87821      74651.908      75854.868      28613.448      47241.419    
    106000   106000         0.31321526     0.31602465     351.2082       254.95115      96.25705       97.12043       299.09056     -473.90772      73741.062      75822.614      28545.968      47276.646    
    107000   107000         0.30977946     0.35619081     340.83748      256.37396      84.463516      97.117892      297.36801     -217.78049      74702.82       75659.381      28381.563      47277.818    
    108000   108000         0.31117633     0.31833482     345.60593      250.66016      94.945775      97.129965      299.47336     -126.83807      75150.099      75707.211      28582.503      47124.708    
    109000   109000         0.311175       0.32218911     343.88709      250.08388      93.803208      97.123392      297.76049      499.88757      77746.921      75551.258      28419.022      47132.235    
    110000   110000         0.30933717     0.32451197     342.71291      250.1711       92.541804      97.081523      296.3357      -104.91302      75061.594      75522.405      28283.037      47239.368    
    111000   111000         0.3117775      0.26198537     365.07322      249.48707      115.58615      97.126572      299.5191      -506.10422      73339.033      75562.002      28586.869      46975.133    
    112000   112000         0.31132316     0.28980073     355.53399      251.16848      104.36551      97.150502      297.4975      -54.108312      75424.893      75662.554      28393.922      47268.632    
    113000   113000         0.31204875     0.32698429     335.68382      242.98752      92.696299      97.133007      298.01553      379.5294       77310.974      75643.961      28443.364      47200.598    
    114000   114000         0.31150732     0.28209301     356.07992      248.78556      107.29436      97.163014      298.29135     -208.70925      74784.918      75701.635      28469.69       47231.945    
    115000   115000         0.31125601     0.25979182     362.84158      246.4063       116.43527      97.183447      298.81732     -703.98323      72494.493      75586.609      28519.889      47066.72     
    116000   116000         0.31060422     0.27427452     367.17939      257.10244      110.07695      97.201846      297.78798     -951.46094      71445.414      75624.53       28421.646      47202.885    
    117000   117000         0.3098728      0.2904629      349.5662       245.84459      103.7216       97.224662      296.95088     -72.475313      75158.156      75476.49       28341.751      47134.739    
    118000   118000         0.3093029      0.31357664     344.21563      248.31617      95.899459      97.224536      297.49802     -129.09536      74822.565      75389.592      28393.971      46995.621    
    119000   119000         0.30876529     0.29394567     353.0124       250.85371      102.15869      97.255441      298.00547      208.75547      76348.004      75431.084      28442.404      46988.68     
    120000   120000         0.30990968     0.29395809     358.16492      255.64261      102.52231      97.245311      296.09283     -711.44318      72129.168      75254.051      28259.857      46994.193    
    121000   121000         0.31183151     0.30921775     352.34331      254.25646      98.086848      97.264688      296.22891      299.01529      76654.536      75341.167      28272.845      47068.322    
    122000   122000         0.31189497     0.31868813     352.30024      257.09795      95.202296      97.27583       297.40937      446.56099      77491.828      75530.391      28385.51       47144.881    
    123000   123000         0.31024913     0.337443       352.17484      262.74748      89.427357      97.265817      297.5066      -826.90844      71639.928      75271.97       28394.791      46877.179    
    124000   124000         0.31214673     0.33987065     345.39526      256.07715      89.318107      97.251071      297.60564     -267.03804      74079.22       75252.135      28404.243      46847.892    
    125000   125000         0.3131819      0.34223749     343.97164      254.96023      89.011411      97.269484      295.29726     -576.11619      72582.106      75112.59       28183.926      46928.664    
    126000   126000         0.31123323     0.29732239     348.52677      246.72201      101.80476      97.254505      295.06866      71.270587      75445.235      75132.192      28162.107      46970.085    
    127000   127000         0.3107912      0.30420801     344.22297      244.86942      99.353559      97.249047      296.07744     -138.99099      74509.187      75119.679      28258.388      46861.291    
    128000   128000         0.31035182     0.31032738     353.68265      256.40951      97.273138      97.265478      296.93598      139.09013      75684.064      75073.136      28340.329      46732.807    
    129000   129000         0.3106816      0.28472618     362.92848      256.76918      106.1593       97.290385      296.87072     -245.25854      74170.227      75247.48       28334.1        46913.38     
    130000   130000         0.31112815     0.31822798     343.37148      248.205        95.166478      97.338142      296.19007     -578.11473      72641.636      75180.898      28269.138      46911.76     
    131000   131000         0.31162014     0.31484454     352.15796      255.80248      96.355484      97.352496      297.85653     -281.60302      74249.247      75486.136      28428.189      47057.947    
    132000   132000         0.31233511     0.32038005     345.70236      250.76489      94.937474      97.382815      296.14097     -225.08895      74442.597      75431.259      28264.451      47166.808    
    133000   133000         0.31069368     0.34706879     341.19429      254.0522       87.142091      97.344434      297.5989      -397.86422      73660.108      75407.653      28403.6        47004.053    
    134000   134000         0.31203863     0.28743681     354.28055      248.59818      105.68237      97.350136      297.58738     -175.36338      74603.02       75373.271      28402.5        46970.771    
    135000   135000         0.31013852     0.28748076     356.93787      251.89135      105.04652      97.372149      296.497        212.31878      76183.055      75250.484      28298.432      46952.052    
    136000   136000         0.30971593     0.33094321     344.31015      253.19842      91.111732      97.356338      296.80534     -3.4857201      75279.094      75294.404      28327.861      46966.543    
    137000   137000         0.3090893      0.30200355     348.82542      249.23433      99.591088      97.308001      295.70501      360.24453      76748.915      75166.608      28222.842      46943.766    
    138000   138000         0.31024246     0.36717808     338.31949      256.1125       82.206985      97.293593      295.21497     -220.34589      74266.273      75234.101      28176.072      47058.029    
    139000   139000         0.31079496     0.31448416     347.72648      251.603        96.123476      97.264483      295.93521      408.35771      76853.832      75060.196      28244.813      46815.383    
    140000   140000         0.30990621     0.29519186     353.95373      251.84548      102.10826      97.260158      295.51433     -816.17966      71425.703      75010.621      28204.643      46805.978    
    141000   141000         0.30827763     0.33823831     341.11201      252.49355      88.618459      97.231053      294.48836     -770.03251      71652.14       75034.365      28106.722      46927.643    
    142000   142000         0.30906227     0.36760582     341.47797      259.73714      81.740831      97.224439      295.14137      212.30818      76041.593      75109.069      28169.047      46940.022    
    143000   143000         0.30934245     0.29981355     351.84909      251.48054      100.36855      97.276824      295.1572       151.72411      75775.956      75109.536      28170.558      46938.978    
    144000   144000         0.30933176     0.32373358     348.11842      255.18193      92.936489      97.26341       297.70274     -901.30145      71358.423      75317.223      28413.511      46903.712    
    145000   145000         0.31083461     0.31225529     349.85758      253.05488      96.802705      97.245146      298.85939      7.3523552      75369.1        75336.806      28523.904      46812.901    
    146000   146000         0.30960369     0.34754555     336.96927      250.34845      86.620818      97.236179      297.49976      108.33986      75841.329      75365.466      28394.138      46971.328    
    147000   147000         0.30993537     0.27691136     357.19281      248.37176      108.82105      97.226025      296.21314     -459.21893      73233.254      75250.288      28271.34       46978.949    
    148000   148000         0.30931478     0.28781467     351.55443      247.06816      104.48626      97.223544      296.12202     -96.436587      74675.928      75099.508      28262.643      46836.865    
    149000   149000         0.3100714      0.29765426     350.83188      249.55994      101.27194      97.216399      295.57009     -78.562763      74801.548      75146.621      28209.965      46936.656    
    150000   150000         0.31041504     0.2740658      355.99992      245.86056      110.13936      97.242171      294.36764     -614.25174      72373.775      75071.762      28095.2        46976.562    
    151000   151000         0.31093354     0.26403445     363.77784      249.24356      114.53429      97.258716      294.97557     -91.890012      74742.509      75146.119      28153.223      46992.896    
    152000   152000         0.30994599     0.34509281     346.21447      258.85447      87.360005      97.266334      296.83576      114.74953      75643.076      75139.06       28330.764      46808.296    
    153000   153000         0.31024205     0.31929202     350.23856      255.78247      94.456094      97.211442      296.64972     -21.807927      75029.742      75125.529      28313.008      46812.521    
    154000   154000         0.31022602     0.29236732     348.69017      245.54434      103.14583      97.208057      295.50565     -378.5674       73252.846      74915.634      28203.815      46711.819    
    155000   155000         0.31014424     0.28677917     349.91783      244.76174      105.15609      97.234035      297.21809     -299.90187      73768.287      75085.55       28367.255      46718.295    
    156000   156000         0.31235889     0.31112481     349.84349      252.23062      97.612871      97.227217      296.85594     -235.53677      74184.959      75219.51       28332.69       46886.82     
    157000   157000         0.31237226     0.3165424      350.02589      254.05605      95.969847      97.251037      297.03002      82.489818      75589.749      75227.428      28349.305      46878.123    
    158000   158000         0.31171385     0.28875039     353.304        248.32564      104.97836      97.244775      296.33795     -102.02255      74667.296      75115.411      28283.252      46832.159    
    159000   159000         0.31284637     0.31061099     345.01558      247.06169      97.953888      97.25398       295.28015      37.329278      75390.287      75226.325      28182.292      47044.033    
    160000   160000         0.3122835      0.35963198     342.24667      257.80133      84.445346      97.248966      296.53141     -115.74792      74687.27       75195.671      28301.716      46893.955    
    161000   161000         0.31184554     0.28256695     357.25036      249.93783      107.31253      97.237161      296.40141      28.474138      75358.167      75233.1        28289.308      46943.792    
    162000   162000         0.31050529     0.3213695      344.13203      250.19505      93.936985      97.223727      296.00908     -96.755499      74706.649      75131.629      28251.863      46879.766    
    163000   163000         0.31175785     0.30158299     349.55548      249.02676      100.52872      97.247759      295.54969      604.03612      77902.496      75249.379      28208.018      47041.361    
    164000   164000         0.31185308     0.30799989     353.7353       255.2748       98.460502      97.243946      296.19132     -102.10121      74658.521      75106.982      28269.257      46837.725    
    165000   165000         0.31086626     0.32973939     339.54249      247.87584      91.666644      97.231855      296.03711     -74.587127      74784.298      75111.908      28254.539      46857.369    
    166000   166000         0.31161285     0.25759399     362.40463      244.7791       117.62553      97.234856      295.65374      318.06197      76566.551      75169.522      28217.949      46951.573    
    167000   167000         0.30995361     0.35638383     343.8624       259.28694      84.575455      97.24463       295.46143     -157.03202      74446.811      75136.545      28199.594      46936.951    
    168000   168000         0.31104096     0.28425063     359.33788      252.92981      106.40806      97.243009      296.58791      19.714143      75239.485      75152.895      28307.109      46845.786    
    169000   169000         0.31000704     0.30213454     349.4855       249.69022      99.795278      97.261015      296.00013     -187.98337      74433.479      75259.162      28251.009      47008.153    
    170000   170000         0.31088394     0.28475024     362.62671      256.46737      106.15934      97.235315      298.12863     -478.10372      73271.742      75371.724      28454.159      46917.566    
    171000   171000         0.30931487     0.27143408     362.10353      251.2886       110.81494      97.243789      295.78454     -67.043793      74962.761      75257.239      28230.433      47026.806    
    172000   172000         0.30916198     0.33452994     339.36331      249.51741      89.845906      97.218117      295.0526       175.49986      75996.711      75225.86       28160.575      47065.286    
    173000   173000         0.30848156     0.27185794     359.43357      249.10103      110.33254      97.233614      299.19126     -514.6244       73230.273      75490.665      28555.579      46935.086    
    174000   174000         0.30852821     0.28693432     360.65562      256.07915      104.57648      97.25717       297.60815     -118.38344      74872.563      75392.54       28404.483      46988.057    
    175000   175000         0.30822369     0.29695585     353.30819      252.35706      100.95113      97.260628      296.63171     -379.42716      73686.907      75353.471      28311.289      47042.181    
    176000   176000         0.30766108     0.30072802     349.20674      249.68366      99.523077      97.280349      296.47617      37.049413      75232.161      75069.428      28296.444      46772.984    
    177000   177000         0.30705846     0.33649548     341.554        252.78476      88.769239      97.279352      296.37423      174.45148      75923.347      75157.101      28286.714      46870.387    
    178000   178000         0.3084683      0.31253645     349.60916      253.59817      96.010988      97.277203      297.50933     -656.79617      72403.461      75288.317      28395.051      46893.267    
    179000   179000         0.3087406      0.26363228     360.97498      247.05495      113.92003      97.275826      297.12151     -67.739938      75179.646      75477.181      28358.037      47119.144    
    180000   180000         0.30719245     0.33450763     343.76394      254.41944      89.344496      97.2889        296.62138     -388.78353      73732.028      75439.688      28310.303      47129.385    
    181000   181000         0.30920258     0.31547986     355.49483      260.17011      95.324717      97.259953      299.07993      327.19438      76770.831      75333.69       28544.953      46788.736    
    182000   182000         0.3106509      0.27875053     354.37974      245.97819      108.40155      97.269924      297.68143     -414.4824       73602.6        75423.137      28411.477      47011.66     
    183000   183000         0.3097386      0.32992847     339.66608      248.35476      91.311323      97.263322      297.2602       88.356349      75636.621      75248.532      28371.274      46877.258    
    184000   184000         0.30999705     0.29079089     348.21774      244.50253      103.7152       97.289429      296.32494     -569.74965      72727.633      75230.153      28282.01       46948.143    
    185000   185000         0.30890395     0.31978488     341.81471      247.79853      94.01618       97.327833      293.54299     -589.57356      72571.808      75161.401      28016.494      47144.908    
    186000   186000         0.30868247     0.31592742     350.88517      255.78401      95.101164      97.333244      298.00075      262.98663      76501.303      75346.183      28441.954      46904.229    
    187000   187000         0.30975034     0.30037048     353.24787      252.89674      100.35113      97.312293      298.07369     -144.1999       74756.152      75389.524      28448.915      46940.609    
    188000   188000         0.30989276     0.30666364     344.66156      246.32652      98.33504       97.310379      298.34906      349.95051      76858.296      75321.203      28475.198      46846.006    
    189000   189000         0.30992149     0.35051205     344.29545      258.25796      86.03749       97.30586       297.11276     -489.61036      73311.568      75462.091      28357.202      47104.889    
    190000   190000         0.30978403     0.31211811     350.71745      254.1464       96.571059      97.298677      298.02222     -560.52533      72891.51       75353.514      28444.002      46909.512    
    191000   191000         0.31051139     0.26960636     352.70049      240.63724      112.06325      97.300664      298.20701     -556.96786      72857.17       75303.549      28461.64       46841.909    
    192000   192000         0.31110784     0.35152757     333.43513      247.32634      86.108781      97.2962        295.72662     -174.59866      74450.56       75217.453      28224.905      46992.548    
    193000   193000         0.31126887     0.32157835     354.04542      259.85902      94.186406      97.305939      296.82193     -296.39467      73987.641      75289.5        28329.444      46960.055    
    194000   194000         0.31144856     0.30492524     345.58044      246.18853      99.391911      97.31014       295.78459      168.91961      76011.12       75269.172      28230.437      47038.734    
    195000   195000         0.30958946     0.29205142     354.5979       251.43694      103.16095      97.316951      298.11199     -337.56704      73815.423      75298.124      28452.571      46845.553    
    196000   196000         0.30981352     0.31229392     346.66014      250.11895      96.541193      97.314113      296.463       -310.13582      73952.474      75314.689      28295.187      47019.501    
    197000   197000         0.3103996      0.33435502     338.25092      247.9166       90.334314      97.305962      295.45806     -55.425274      75064.911      75308.356      28199.272      47109.084    
    198000   198000         0.31107391     0.29158447     362.36522      258.54358      103.82164      97.316996      298.44339      979.14127      79602.974      75302.277      28484.2        46818.076    
    199000   199000         0.31112915     0.30183792     352.95968      252.65736      100.30232      97.306999      296.77415     -609.84272      72669.657      75348.278      28324.884      47023.394    
    200000   200000         0.31199655     0.33240992     339.51279      248.20163      91.311168      97.285491      295.07003     -207.79466      74448.827      75361.527      28162.238      47199.289    
    201000   201000         0.31184008     0.31711596     346.04192      250.36946      95.67246       97.291099      296.51075     -502.40163      73237.284      75443.99       28299.744      47144.246    
    202000   202000         0.31056346     0.28629042     356.65594      251.12561      105.53033      97.282285      296.95626     -207.49902      74345.34       75256.742      28342.265      46914.477    
    203000   203000         0.31091973     0.3218545      340.68128      246.69124      93.990039      97.295585      295.41347     -402.06769      73439.593      75205.601      28195.017      47010.584    
    204000   204000         0.31133026     0.27843068     348.91433      240.081        108.83332      97.332446      295.77998     -101.07069      74622.872      75066.806      28229.997      46836.809    
    205000   205000         0.31002886     0.30387941     348.56978      249.28026      99.289528      97.320112      296.83342      17.800694      75284.493      75206.307      28330.541      46875.766    
    206000   206000         0.31050151     0.29531463     350.87882      248.54551      102.33332      97.328113      296.55201      99.594345      75810.142      75372.692      28303.682      47069.01     
    207000   207000         0.31150683     0.31868853     346.90966      251.78419      95.125475      97.318566      296.94324      93.031555      75685.468      75276.844      28341.022      46935.822    
    208000   208000         0.31060096     0.30575796     349.94788      251.07808      98.869808      97.328193      296.11072     -418.63628      73350.517      75189.299      28261.565      46927.735    
    209000   209000         0.31091546     0.28810402     355.65046      250.58508      105.06538      97.356874      295.47743     -600.22809      72494.754      75131.145      28201.121      46930.023    
    210000   210000         0.31074767     0.30744684     357.25699      258.88102      98.375975      97.331004      296.95711     -226.05746      74355.083      75347.999      28342.346      47005.652    
    211000   211000         0.31109193     0.31054739     347.78731      250.27919      97.508123      97.337441      297.72029     -42.442637      75122.053      75308.475      28415.185      46893.289    
    212000   212000         0.31030858     0.29978375     350.54747      249.79904      100.74842      97.331307      297.60315     -260.36555      74214.116      75357.724      28404.005      46953.718    
    213000   213000         0.31094147     0.32342827     356.23115      262.64891      93.582237      97.340317      298.53904     -130.43884      75005.687      75578.616      28493.329      47085.287    
    214000   214000         0.30981964     0.31697258     338.01326      242.87685      95.136402      97.33286       295.78319      83.441826      75800.569      75434.066      28230.304      47203.762    
    215000   215000         0.30969801     0.28343443     354.58581      248.23984      106.34597      97.327421      295.72232      228.91842      76374.803      75369.321      28224.494      47144.827    
    216000   216000         0.31043797     0.2998619      346.79944      246.00967      100.78977      97.356043      296.29865     -375.0674       73672.124      75319.538      28279.501      47040.038    
    217000   217000         0.30937386     0.33551334     334.45809      244.67667      89.781417      97.367189      296.02125      459.25114      77323.676      75306.501      28253.025      47053.475    
    218000   218000         0.30983034     0.32048356     344.07883      249.94642      94.132414      97.369066      295.96686     -378.2647       73616.259      75277.716      28247.834      47029.882    
    219000   219000         0.30953608     0.30667902     347.29091      249.0236       98.267309      97.360286      297.42474      467.77299      77357.933      75303.327      28386.978      46916.349    
    220000   220000         0.30947008     0.31439079     341.72143      245.89741      95.824017      97.347662      296.69374     -401.53504      73588.499      75352.168      28317.209      47034.959    
    221000   221000         0.30942975     0.33899532     344.97891      256.15228      88.826627      97.313883      295.42883     -4.7776985      75402.227      75423.212      28196.483      47226.729    
    222000   222000         0.30921511     0.28020911     357.01268      249.62411      107.38857      97.314954      295.96093      302.85022      76683.078      75352.864      28247.268      47105.596    
    223000   223000         0.30968328     0.31112723     349.35794      252.48842      96.869517      97.321185      295.66303     -291.50988      73977.383      75257.787      28218.836      47038.951    
    224000   224000         0.30845455     0.36485211     331.57629      249.29086      82.285429      97.330426      297.07849     -695.62029      71969.818      75025.201      28353.93       46671.271    
    225000   225000         0.30869963     0.30458015     347.84677      249.20064      98.646133      97.329739      296.11324     -214.56509      74430.693      75373.131      28261.804      47111.326    
    226000   226000         0.30853274     0.28531158     356.9302       251.66339      105.26681      97.344091      298.1704      -141.53761      74643.903      75265.58       28458.145      46807.435    
    227000   227000         0.30822537     0.30476249     345.17755      246.70573      98.471823      97.365504      296.67816      421.05538      77073.609      75224.201      28315.722      46908.478    
    228000   228000         0.309474       0.28747418     348.05403      243.25219      104.80184      97.351704      296.07767     -404.64807      73574.116      75351.458      28258.41       47093.047    
    229000   229000         0.30913878     0.28755575     359.11828      254.43708      104.6812       97.372706      298.44748     -205.63064      74506.774      75409.969      28484.59       46925.379    
    230000   230000         0.30948796     0.33222652     349.43228      258.71955      90.712731      97.377533      297.48367     -441.29749      73477.048      75415.365      28392.602      47022.763    
    231000   231000         0.30926226     0.30059849     350.58388      250.40091      100.18296      97.376405      296.43906     -270.1903       74055.258      75242.019      28292.901      46949.117    
    232000   232000         0.30890121     0.30109179     350.66984      250.76115      99.908691      97.38287       296.7119       614.46521      78114.918      75415.993      28318.943      47097.051    
    233000   233000         0.30872145     0.3055013      348.2163       249.80818      98.408119      97.381663      296.86385     -460.67859      73229.415      75252.861      28333.445      46919.416    
    234000   234000         0.30828917     0.38145604     338.16349      259.45676      78.706735      97.386359      296.76391      227.17703      76164.403      75166.57       28323.907      46842.663    
    235000   235000         0.30894873     0.32250229     355.39221      262.08542      93.306792      97.400157      295.76622      200.59626      76253.295      75372.213      28228.684      47143.529    
    236000   236000         0.3093071      0.31391175     353.88483      257.89954      95.985289      97.414222      297.1462      -337.97023      74102.21       75586.682      28360.393      47226.289    
    237000   237000         0.30894398     0.35398308     343.69273      258.66191      85.030827      97.426964      298.42941     -585.27514      72842.73       75413.443      28482.866      46930.577    
    238000   238000         0.30906978     0.38562982     337.36696      259.29043      78.076535      97.416965      296.69201      158.5428       76078.092      75381.722      28317.045      47064.677    
    239000   239000         0.3094273      0.30059274     352.82769      252.56366      100.26403      97.401357      296.97727     -761.03823      72053.405      75396.125      28344.27       47051.855    
    240000   240000         0.30792621     0.35516375     338.95123      254.50111      84.450124      97.405228      297.32396     -449.61394      73243.855      75218.702      28377.359      46841.343    
    241000   241000         0.30952266     0.30829948     349.09358      251.31342      97.780151      97.39374       296.26171      144.61954      76177.217      75542.003      28275.975      47266.028    
    242000   242000         0.30887027     0.31806925     348.42088      253.84123      94.579644      97.396479      296.60449     -579.68328      72872.776      75418.927      28308.691      47110.236    
    243000   243000         0.31012085     0.27248702     355.25509      244.41428      110.84081      97.390041      296.26465      29.450675      75620.403      75491.047      28276.255      47214.791    
    244000   244000         0.30887246     0.31662728     345.24361      250.20781      95.035807      97.421859      297.74965     -86.047598      75071.107      75449.055      28417.988      47031.067    
    245000   245000         0.30840317     0.32267911     348.70868      255.59374      93.114944      97.425223      298.62217      97.899685      75833.812      75403.806      28501.264      46902.542    
    246000   246000         0.3085462      0.36026207     338.9691       255.5386       83.430502      97.414408      295.03176     -166.42285      74565.4        75296.382      28158.586      47137.796    
    247000   247000         0.30876968     0.29431603     355.99061      253.79521      102.1954       97.411587      296.93473     -392.93265      73524.21       75250.094      28340.21       46909.884    
    248000   248000         0.30891904     0.27957192     360.80109      253.15266      107.64843      97.421893      296.55908     -432.7436       73405.522      75306.268      28304.357      47001.911    
    249000   249000         0.30837905     0.26778941     355.28436      243.08809      112.19627      97.428709      296.54196      246.24423      76316.952      75235.37       28302.722      46932.647    
    250000   250000         0.30787302     0.26936629     356.47926      245.12517      111.35409      97.426656      295.06534      56.264281      75367.178      75120.047      28161.79       46958.257    
    251000   251000         0.30802551     0.28696395     356.34647      251.7701       104.57638      97.425859      296.02339     -115.69901      74608.001      75116.187      28253.229      46862.958    
    252000   252000         0.30742791     0.32232635     348.57554      255.66079      92.914746      97.417541      295.76117      269.66497      76262.268      75077.815      28228.202      46849.612    
    253000   253000         0.30796874     0.32611689     349.14904      257.16568      91.983355      97.403802      295.59126      96.042304      75642.043      75220.195      28211.986      47008.209    
    254000   254000         0.30749833     0.32658161     346.91243      255.19987      91.712551      97.404212      295.75853     -134.73412      74488.225      75080.02       28227.95       46852.07     
    255000   255000         0.3069308      0.3546231      339.05497      254.75929      84.295678      97.393924      295.27502     -63.05379       74785.428      75062.38       28181.803      46880.577    
    256000   256000         0.30699733     0.34387891     338.09669      251.15148      86.945213      97.390506      296.91086     -651.39147      72265.799      75126.916      28337.931      46788.984    
    257000   257000         0.30654897     0.28348135     352.43134      247.10467      105.32667      97.400903      294.3861       48.604102      75197.26       74983.776      28096.962      46886.814    
    258000   258000         0.30747461     0.31148441     348.67325      252.52802      96.14523       97.399067      295.67281      877.94603      79085.987      75229.771      28219.769      47010.002    
    259000   259000         0.307303       0.28819015     351.10686      247.24482      103.86204      97.402291      295.27791     -189.74934      74309.611      75143.05       28182.078      46960.972    
    260000   260000         0.30749464     0.29872961     350.23181      249.96235      100.26946      97.411315      294.84047     -24.226011      75074.732      75181.14       28140.328      47040.812    
    261000   261000         0.30771788     0.29026666     350.38154      247.10828      103.27326      97.416451      296.35381     -842.00943      71512.915      75211.286      28284.765      46926.521    
    262000   262000         0.30817894     0.27608272     353.01397      244.25809      108.75588      97.429177      296.98142     -313.08722      73994.6        75369.777      28344.666      47025.111    
    263000   263000         0.30768992     0.343737       340.76077      253.55331      87.207457      97.424153      296.62899     -19.488222      75313.828      75399.427      28311.029      47088.398    
    264000   264000         0.30762763     0.3261851      348.12728      256.25853      91.868747      97.410678      297.46977     -268.00511      74148.539      75325.702      28391.276      46934.426    
    265000   265000         0.30781081     0.28942548     346.17958      242.60511      103.57446      97.388031      294.84548     -99.178733      74832.176      75267.801      28140.806      47126.994    
    266000   266000         0.30864607     0.34697137     341.43877      254.81693      86.621843      97.377879      296.52219     -263.39576      74316.009      75472.926      28300.836      47172.09     
    267000   267000         0.30885394     0.29468111     350.45716      248.3853       102.07186      97.387944      298.26951      8.674938       75544.62       75506.517      28467.604      47038.913    
    268000   268000         0.30802436     0.33813887     339.38655      250.68297      88.703579      97.37583       296.53779     -333.77693      74027.116      75493.17       28302.325      47190.845    
    269000   269000         0.30803703     0.3435823      338.18099      250.88033      87.300662      97.374534      296.87        -756.62807      72137.641      75460.99       28334.032      47126.958    
    270000   270000         0.30784922     0.29890643     349.96225      249.67817      100.28408      97.370896      296.10736      4.7376874      75256.547      75235.737      28261.243      46974.494    
    271000   271000         0.30803502     0.28669429     352.09055      247.47467      104.61588      97.36807       296.96328     -374.34278      73620.5        75264.731      28342.935      46921.796    
    272000   272000         0.30838638     0.28575967     351.0144       245.93772      105.07668      97.36707       297.49842     -910.3424       71393.771      75392.282      28394.01       46998.272    
    273000   273000         0.30834756     0.32617992     341.03957      248.99165      92.047922      97.371235      296.89313     -127.83855      74823.037      75384.544      28336.239      47048.305    
    274000   274000         0.30871469     0.27158988     363.6175       252.93609      110.68142      97.371304      297.8362       37.915892      75614.841      75448.303      28426.249      47022.054    
    275000   275000         0.30836866     0.29367438     352.60726      250.355        102.25226      97.37977       296.55581     -295.3214       74076.602      75373.747      28304.045      47069.702    
    276000   276000         0.3084903      0.3392695      347.86261      259.32305      88.539566      97.37348       297.54189      76.256982      75917.828      75582.883      28398.159      47184.724    
    277000   277000         0.30728179     0.37412293     337.4896       257.52739      79.96221       97.355902      294.56604     -111.16475      74763.832      75252.102      28114.136      47137.966    
    278000   278000         0.3084164      0.31853705     350.1301       255.8793       94.250803      97.343631      296.15406     -717.59405      72087.124      75239.023      28265.701      46973.323    
    279000   279000         0.30888833     0.30072392     352.36794      252.40609      99.961849      97.319697      296.35829     -624.35042      72683.934      75426.278      28285.193      47141.084    
    280000   280000         0.30862131     0.32756951     339.4381       247.7388       91.699299      97.329294      295.51507     -591.42148      72753.682      75351.392      28204.714      47146.678    
    281000   281000         0.30924503     0.30703193     352.11325      254.07748      98.035776      97.334184      297.5187       322.8374       77062.936      75644.932      28395.946      47248.986    
    282000   282000         0.30880599     0.28384305     343.84392      237.93485      105.90907      97.347705      295.99091     -154.00725      74850.262      75526.71       28250.129      47276.581    
    283000   283000         0.30825029     0.35155501     335.29382      249.94846      85.345356      97.33515       296.65288      227.05478      76518.953      75521.657      28313.309      47208.348    
    284000   284000         0.30902098     0.27084423     359.84953      248.79473      111.0548       97.334981      296.94561      45.887804      75603.612      75402.059      28341.248      47060.811    
    285000   285000         0.30929543     0.30044638     350.24652      250.04313      100.20338      97.336531      298.5695      -372.07479      73952.142      75586.411      28496.237      47090.175    
    286000   286000         0.30838922     0.31163725     356.49899      260.18671      96.312278      97.326663      299.03693      150.24497      76290.721      75630.798      28540.849      47089.949    
    287000   287000         0.30850014     0.32460491     346.66444      254.17763      92.486814      97.314943      296.82791      511.27143      77683.48       75437.815      28330.015      47107.801    
    288000   288000         0.30916785     0.28688471     360.03431      255.15888      104.87543      97.316578      297.37804      64.679944      75991.894      75707.799      28382.521      47325.278    
    289000   289000         0.30892208     0.28718567     344.9896       240.29498      104.69462      97.328086      297.68012     -89.471066      74891.558      75284.543      28411.352      46873.191    
    290000   290000         0.30891671     0.32051725     349.44261      255.62776      93.814849      97.337814      297.79956      563.36671      77887.747      75413.263      28422.751      46990.512    
    291000   291000         0.30907979     0.3247128      338.04386      245.38446      92.659399      97.346037      295.74228     -267.42706      74187.18       75361.804      28226.4        47135.404    
    292000   292000         0.30885758     0.31093764     348.10105      251.41603      96.685022      97.336168      296.29887     -204.07847      74419.795      75316.172      28279.521      47036.65     
    293000   293000         0.30930361     0.30981893     347.70473      250.52456      97.180164      97.342073      296.22208      657.41896      78351.257      75463.666      28272.193      47191.473    
    294000   294000         0.30938762     0.32656737     340.67076      248.45296      92.217804      97.338496      296.07599      2.4936383      75386.344      75375.391      28258.25       47117.141    
    295000   295000         0.3095074      0.32972454     350.59919      259.24718      91.35201       97.319158      296.34938     -44.628633      75208.057      75404.08       28284.343      47119.738    
    296000   296000         0.30959772     0.35071336     339.43972      253.53821      85.901504      97.309517      295.84206     -286.55441      74129.668      75388.305      28235.922      47152.383    
    297000   297000         0.31045572     0.28636213     351.37852      245.88082      105.4977       97.310321      297.89973     -391.6299       73659.52       75379.682      28432.312      46947.37     
    298000   298000         0.31059826     0.30127104     347.63732      247.30919      100.32813      97.31529       297.12169      249.80882      76348.398      75251.159      28358.053      46893.105    
    299000   299000         0.31130735     0.30614517     348.6454       249.67025      98.97515       97.333919      297.67957     -137.664        74745.822      75350.486      28411.299      46939.187    
    300000   300000         0.31013365     0.3218765      347.42477      253.63124      93.793528      97.344913      297.835        599.34119      78126.017      75493.521      28426.134      47067.387    
    301000   301000         0.31029875     0.33772862     345.21666      255.77383      89.442837      97.349429      296.19191      137.73514      75945.148      75340.172      28269.314      47070.858    
    302000   302000         0.31042123     0.27207934     354.0051       242.91795      111.08714      97.366136      297.87051     -259.63786      74248.963      75389.374      28429.523      46959.851    
    303000   303000         0.30934183     0.34400429     343.42257      255.86681      87.555763      97.366588      296.86228      121.56932      75892.349      75358.378      28333.295      47025.083    
    304000   304000         0.31056571     0.29410027     344.0936       241.27555      102.81804      97.36688       295.36402     -124.36649      74751.827      75298.084      28190.298      47107.786    
    305000   305000         0.3102741      0.34833833     336.27986      249.55213      86.72773       97.367434      297.04145     -318.43767      74125.871      75524.55       28350.396      47174.154    
    306000   306000         0.31010427     0.29338923     352.6093       249.6946       102.9147       97.367462      297.82454      163.45165      76202.294      75484.363      28425.136      47059.227    
    307000   307000         0.31062702     0.29716135     349.32133      247.53941      101.78192      97.36968       297.95943     -167.47682      74745.255      75480.866      28438.01       47042.856    
    308000   308000         0.31034679     0.26954718     358.65257      246.52472      112.12785      97.387006      297.63457      152.2234       76018.612      75349.999      28407.004      46942.994    
    309000   309000         0.30963335     0.28888842     356.66584      252.29637      104.36947      97.376886      299.32365      814.56083      79046.124      75468.316      28568.214      46900.102    
    310000   310000         0.3100852      0.32799692     347.9716       255.91401      92.057588      97.375191      298.0698      -720.68469      72291.48       75456.955      28448.543      47008.411    
    311000   311000         0.31021552     0.32272907     344.82547      251.2266       93.598874      97.374488      298.23857     -815.79247      71985.055      75568.273      28464.652      47103.621    
    312000   312000         0.30956648     0.27689798     363.75566      254.88793      108.86772      97.378931      297.50193      476.37874      77526.3        75433.894      28394.345      47039.55     
    313000   313000         0.30917733     0.33796239     341.36809      252.2799       89.088191      97.38249       297.95627      76.329239      75710.055      75374.793      28437.709      46937.085    
    314000   314000         0.30897201     0.2822721      355.06787      248.45974      106.60812      97.395549      296.01748     -645.30209      72372.447      75206.817      28252.665      46954.152    
    315000   315000         0.30852778     0.3207106      341.58614      247.8988       93.687335      97.386761      296.68266     -657.22225      72363.998      75250.725      28316.152      46934.574    
    316000   316000         0.30797545     0.27787205     359.17257      251.25832      107.91425      97.366055      296.50034     -1061.4966      70491.638      75154.066      28298.75       46855.316    
    317000   317000         0.30803261     0.28652922     352.27063      247.60888      104.66175      97.355437      295.99177     -79.930937      74818.64       75169.722      28250.212      46919.51     
    318000   318000         0.30799541     0.31396267     346.56733      251.0598       95.507536      97.357949      295.92922     -533.09314      72744.57       75086.083      28244.241      46841.842    
    319000   319000         0.3079776      0.34261437     343.92863      256.4187       87.509929      97.351751      295.50879      335.018        76617.44       75145.935      28204.114      46941.821    
    320000   320000         0.3072634      0.30356494     347.31365      248.77419      98.539463      97.353366      296.02383     -153.90763      74322.353      74998.364      28253.272      46745.092    
    321000   321000         0.30723225     0.32811906     335.00412      243.85212      91.151997      97.348856      295.5462       170.34489      75884.243      75136.034      28207.685      46928.349    
[...]
    932000   932000         0.30575178     0.29113679     356.00253      253.5955       102.40703      97.511953      296.56263      261.57386      76504.732      75355.817      28304.696      47051.122    
    933000   933000         0.30554047     0.30095821     355.74991      256.74797      99.00194       97.517185      297.25795     -427.48997      73472.061      75349.731      28371.058      46978.673    
    934000   934000         0.30571211     0.30552764     349.7737       252.2008       97.572896      97.51402       295.31829     -262.97379      74234.263      75389.327      28185.932      47203.395    
    935000   935000         0.30577958     0.29988704     353.88606      254.45797      99.42809       97.512057      297.92464     -216.70434      74538.374      75490.208      28434.69       47055.518    
    936000   936000         0.30574972     0.30896274     343.8371       247.33908      96.498019      97.512083      297.4315      -112.98976      74936.21       75432.497      28387.623      47044.874    
    937000   937000         0.30579517     0.26632833     359.89662      247.93262      111.964        97.513591      298.30337     -379.10596      73953.511      75618.664      28470.837      47147.828    
    938000   938000         0.30557577     0.31311237     348.23211      253.06087      95.171244      97.518512      297.59648      53.360187      75635.755      75401.381      28403.369      46998.012    
    939000   939000         0.30564131     0.33009535     332.76288      242.46806      90.29482       97.519216      296.31906      138.31805      75936.104      75328.567      28281.448      47047.119    
    940000   940000         0.30556879     0.32967432     341.89538      251.50465      90.39073       97.521418      296.55522     -446.1051       73444.974      75404.409      28303.988      47100.42     
    941000   941000         0.30549907     0.33077839     348.72942      258.6613       90.068126      97.521048      298.45801     -555.44299      73036.072      75475.752      28485.596      46990.157    
    942000   942000         0.30540612     0.29494474     349.15641      248.18245      100.97396      97.515197      296.17004     -397.62851      73476.09       75222.6        28267.226      46955.373    
    943000   943000         0.30551641     0.28656333     346.85048      242.88537      103.96511      97.515511      295.79023     -377.81504      73560.016      75219.499      28230.976      46988.523    
    944000   944000         0.30542579     0.31289303     337.87986      242.69513      95.18473       97.511866      294.12602     -73.101187      74793.761      75114.845      28072.139      47042.706    
    945000   945000         0.30528538     0.29046281     352.89137      250.40225      102.48912      97.512945      296.95952      139.30145      75882.242      75270.386      28342.575      46927.81     
    946000   946000         0.30536368     0.26552484     361.73292      249.59387      112.13905      97.508991      297.93948      37.353362      75505.027      75340.959      28436.106      46904.853    
    947000   947000         0.3053576      0.27890597     358.00485      251.24556      106.75929      97.511253      295.39486      518.54904      77633.914      75356.284      28193.24       47163.043    
    948000   948000         0.30554152     0.29330698     346.93727      245.35779      101.57948      97.512017      296.27129      60.007948      75657.27       75393.696      28276.89       47116.806    
    949000   949000         0.30538176     0.32665611     346.09616      254.93099      91.165161      97.516162      297.38954     -194.16191      74586.071      75438.892      28383.618      47055.273    
    950000   950000         0.30553649     0.28421238     351.70396      246.87486      104.8291       97.51283       296.47607      475.21455      77538.343      75451.051      28296.435      47154.617    
    951000   951000         0.30573264     0.30914109     347.50735      251.07312      96.434235      97.50933       296.45202      62.012768      75689.176      75416.797      28294.139      47122.658    
    952000   952000         0.30566984     0.36161296     338.53563      256.10937      82.426262      97.511759      296.36604     -162.9629       74683.087      75398.871      28285.933      47112.939    
    953000   953000         0.30575758     0.27875613     348.60478      241.64858      106.9562       97.510896      294.78013      425.77584      77089.953      75219.811      28134.569      47085.242    
    954000   954000         0.30589799     0.30459726     345.49421      247.56179      97.932417      97.515992      294.87193     -276.81187      74057.996      75273.841      28143.331      47130.51     
    955000   955000         0.30584009     0.30317847     347.71171      249.34277      98.368935      97.512866      298.44552     -150.46052      74827.996      75488.866      28484.403      47004.463    
    956000   956000         0.30582562     0.2799255      356.54685      250.01025      106.5366       97.514107      297.25501     -565.03457      72976.685      75458.495      28370.778      47087.717    
    957000   957000         0.30579073     0.30903086     353.59792      257.10397      96.493955      97.516397      295.70337     -254.66147      74358.676      75477.23       28222.686      47254.544    
    958000   958000         0.30573868     0.34759685     342.89167      257.11857      85.773103      97.516153      297.21525     -78.148908      75144.093      75487.348      28366.983      47120.364    
    959000   959000         0.30587856     0.29394954     352.69733      251.22176      101.47557      97.518104      297.07551     -127.61155      74996.224      75556.734      28353.647      47203.088    
    960000   960000         0.30596843     0.27580217     359.48188      251.29749      108.18439      97.518201      297.06038      105.83663      76054.037      75589.169      28352.202      47236.966    
    961000   961000         0.3057358      0.34993711     349.11755      263.91662      85.200926      97.518728      297.10395     -341.90395      74182.252      75684.002      28356.361      47327.641    
    962000   962000         0.30573652     0.48679114     321.61942      260.37576      61.243653      97.511634      297.51584     -253.80846      74371.634      75486.441      28395.673      47090.769    
    963000   963000         0.3058813      0.26690635     362.044        250.29502      111.74898      97.510087      299.07031     -750.6767       72211.298      75508.507      28544.035      46964.472    
    964000   964000         0.30574946     0.31811571     350.46459      256.74262      93.721974      97.512626      297.37742     -361.75622      73915.137      75504.085      28382.461      47121.623    
    965000   965000         0.30594472     0.2880403      355.96341      252.39117      103.57224      97.511012      300.17694     -734.69117      72421.795      75648.79       28649.655      46999.135    
    966000   966000         0.30585026     0.29375694     346.62813      245.10406      101.52407      97.50981       298.1919      -88.228696      75151.552      75539.08       28460.198      47078.882    
    967000   967000         0.30566324     0.32652008     341.93901      250.65654      91.282472      97.511104      295.58873     -546.42816      73019.88       75419.964      28211.744      47208.221    
    968000   968000         0.30580492     0.3005626      355.30048      256.09228      99.208196      97.507503      297.59624     -194.48173      74628.985      75483.21       28403.346      47079.864    
    969000   969000         0.30574455     0.30250727     349.7659       251.21625      98.54965       97.506187      296.63933     -211.84652      74422.734      75353.231      28312.016      47041.215    
    970000   970000         0.30572236     0.27858061     356.9387       249.9361       107.0026       97.503007      297.26169      3.3758474      75560.018      75545.191      28371.416      47173.775    
    971000   971000         0.30569008     0.29705375     352.34139      252.00587      100.33552      97.500852      296.24937     -56.192576      75253.623      75500.439      28274.798      47225.641    
    972000   972000         0.3055636      0.32610305     344.21048      252.84773      91.362755      97.503998      297.55889     -182.75972      74751.446      75554.184      28399.782      47154.403    
    973000   973000         0.3058182      0.31106581     342.57377      246.71782      95.855949      97.500766      299.04659     -669.93241      72745.851      75688.406      28541.771      47146.635    
    974000   974000         0.30581245     0.28985389     355.79981      252.93063      102.86918      97.501035      298.32572     -506.73835      73569.059      75794.813      28472.97       47321.844    
    975000   975000         0.30571799     0.33704791     335.0329       246.59578      88.437123      97.50014       298.3208      -613.76673      73075.228      75771.085      28472.5        47298.586    
    976000   976000         0.30586375     0.27605734     355.54153      247.5145       108.02703      97.4998        298.08878      146.05419      76347.282      75705.766      28450.355      47255.411    
    977000   977000         0.30556818     0.32843183     348.64212      257.92829      90.713825      97.501343      299.63574     -112.18127      75230.596      75723.332      28598.001      47125.331    
    978000   978000         0.30574049     0.32483382     344.65597      252.89013      91.76584       97.49657       297.55302     -216.278        74835.464      75785.426      28399.221      47386.205    
    979000   979000         0.30585895     0.30774106     346.71145      249.81024      96.901206      97.497491      298.98509     -627.95022      72974.399      75732.554      28535.901      47196.653    
    980000   980000         0.30567819     0.32108114     337.29838      244.47329      92.825091      97.502495      297.44809     -862.32389      71740.859      75528.457      28389.206      47139.25     
    981000   981000         0.30535665     0.28809447     349.16032      245.81096      103.34936      97.506899      294.88161     -222.17271      74519.782      75495.635      28144.255      47351.38     
    982000   982000         0.30536801     0.33373201     346.52401      257.30924      89.214776      97.501458      298.27213     -1366.7756      69431.098      75434.408      28467.855      46966.553    
    983000   983000         0.30548748     0.30744854     346.22922      249.3509       96.878315      97.50022       296.70231     -324.12901      73961.589      75385.266      28318.027      47067.239    
    984000   984000         0.30551759     0.32562869     347.21981      255.74026      91.479553      97.501316      296.74651     -460.04764      73449.878      75470.552      28322.246      47148.306    
    985000   985000         0.3056838      0.3460608      338.92243      252.79669      86.125736      97.501868      297.98162     -157.73121      74820.209      75513.014      28440.128      47072.886    
    986000   986000         0.30567569     0.26441719     359.46035      246.74492      112.71542      97.501691      297.26117     -407.41813      73784.254      75573.762      28371.366      47202.396    
    987000   987000         0.30553611     0.325644       353.60924      262.12708      91.482166      97.502774      298.43636     -220.64338      74569.664      75538.8        28483.529      47055.27     
    988000   988000         0.30548441     0.33011836     352.03641      261.81106      90.225347      97.501027      299.33697      450.57125      77613.881      75634.83       28569.486      47065.344    
    989000   989000         0.30542975     0.30542071     349.48663      251.98016      97.506474      97.503586      298.26975     -138.17434      74795.557      75402.462      28467.628      46934.834    
    990000   990000         0.30550401     0.32319955     338.85431      246.68626      92.168051      97.506652      297.12351      132.5727       75999.297      75416.995      28358.227      47058.768    
    991000   991000         0.30552103     0.32627076     345.83079      254.53071      91.300084      97.50081       295.99757      498.25341      77541.314      75352.828      28250.765      47102.063    
    992000   992000         0.3057077      0.34211746     344.47862      257.35696      87.121663      97.497845      298.12418     -28.566962      75315.991      75441.466      28453.734      46987.732    
    993000   993000         0.30543169     0.3502241      342.39115      257.36138      85.029767      97.49962       297.1379      -83.719972      75195.778      75563.503      28359.601      47203.902    
    994000   994000         0.30562713     0.32937492     346.77822      256.30836      90.469864      97.49954       300.71516      542.51177      78005.824      75622.941      28701.023      46921.918    
    995000   995000         0.30572379     0.2651204      364.80055      252.37178      112.42877      97.497021      298.66932     -170.48448      74850.787      75599.608      28505.763      47093.845    
    996000   996000         0.30565609     0.31429084     344.59877      249.77566      94.823107      97.501849      298.57659     -284.38252      74453.704      75702.802      28496.913      47205.889    
    997000   997000         0.30556773     0.32299404     343.61972      251.37929      92.240427      97.500835      298.30356     -415.85037      73807.527      75634.073      28470.855      47163.218    
    998000   998000         0.30555216     0.30276464     354.30109      255.90684      98.394247      97.496606      299.34066     -277.9945       74528.633      75749.672      28569.838      47179.835    
    999000   999000         0.30584962     0.34397939     340.40644      253.71867      86.687772      97.494997      301.40065      200.00581      76690.008      75811.519      28766.449      47045.071    
   1000000   1000000        0.30576338     0.3762064      330.94708      251.70603      79.241048      97.496928      298.43398     -430.11961      73716.964      75606.185      28483.302      47122.883    
   1001000   1001000        0.30573349     0.33833008     345.12756      257.02276      88.104795      97.498324      298.44792      90.069891      76173.598      75777.982      28484.632      47293.35     
   1002000   1002000        0.30589301     0.27867644     354.85085      247.82874      107.02211      97.49991       298.9469       473.84965      77898.357      75817.06       28532.257      47284.803    
   1003000   1003000        0.30561092     0.30287805     352.16535      253.78224      98.38311       97.503337      296.79056     -5.4114082      75588.844      75612.613      28326.45       47286.162    
   1004000   1004000        0.30543404     0.33349193     339.87927      250.58188      89.297398      97.500468      296.34158      673.96746      78331.784      75371.507      28283.598      47087.909    
   1005000   1005000        0.30535688     0.29994615     345.55569      246.30342      99.252269      97.493581      297.27303      217.61013      76245.713      75289.901      28372.498      46917.403    
   1006000   1006000        0.30570796     0.27905363     354.97841      248.17438      106.80403      97.491906      295.65737     -107.0893       74772.634      75243.004      28218.295      47024.709    
   1007000   1007000        0.30567533     0.28845749     347.55596      244.24544      103.31052      97.491329      296.22257      578.00526      77933.985      75395.203      28272.239      47122.964    
   1008000   1008000        0.30561651     0.26027732     361.892        247.41645      114.47554      97.492727      296.46596     -475.38851      73239.209      75327.265      28295.469      47031.796    
   1009000   1009000        0.30565447     0.27215657     361.46895      251.97384      109.49511      97.495102      296.57088     -640.19752      72541.345      75353.294      28305.483      47047.811    
   1010000   1010000        0.30569941     0.25934381     353.47212      238.55022      114.9219       97.495393      294.97378      220.3386       76105.703      75137.906      28153.051      46984.855    
   1011000   1011000        0.30560626     0.30738916     343.28387      246.35269      96.931172      97.496667      297.1982      -345.68887      73767.6        75285.975      28365.357      46920.618    
   1012000   1012000        0.3056553      0.2750685      353.90604      245.57074      108.33531      97.494238      294.51991     -415.46797      73318.048      75142.915      28109.733      47033.182    
   1013000   1013000        0.30549026     0.34112626     347.79642      260.48304      87.313377      97.498642      297.83999      23.557962      75240.752      75137.278      28426.61       46710.668    
   1014000   1014000        0.30549684     0.33397379     340.50742      251.32474      89.182682      97.495863      297.18485     -50.808748      75020.595      75243.763      28364.082      46879.681    
   1015000   1015000        0.30534367     0.34285266     346.26046      259.43052      86.829945      97.496299      296.65656     -607.96131      72635.445      75305.803      28313.661      46992.142    
   1016000   1016000        0.30536582     0.28689359     352.19537      248.4239       103.77147      97.494114      297.12261     -154.39331      74658.459      75336.604      28358.141      46978.462    
   1017000   1017000        0.30524843     0.33040438     339.64445      249.57599      90.068461      97.491127      296.95572      111.68236      75714.571      75224.027      28342.213      46881.814    
   1018000   1018000        0.30556306     0.28632278     356.15265      252.11304      104.03962      97.488588      296.36923     -265.31191      74346.665      75511.999      28286.238      47225.761    
   1019000   1019000        0.3055335      0.31843991     351.91813      258.38152      93.536609      97.487803      297.93965     -237.78395      74464.718      75509.14       28436.122      47073.017    
   1020000   1020000        0.30563755     0.29096749     356.00184      253.59595      102.40589      97.490591      297.61153      126.0219       76131.728      75578.2        28404.806      47173.395    
   1021000   1021000        0.30553502     0.34350908     340.58937      253.87528      86.714094      97.491538      295.84812     -629.80644      72711.3        75477.608      28236.501      47241.107    
Loop time of 12847.7 on 32 procs for 1000000 steps with 32020 atoms

Performance: 6.725 ns/day, 3.569 hours/ns, 77.835 timesteps/s, 2.492 Matom-step/s
99.5% CPU use with 32 MPI tasks x 1 OpenMP threads

MPI task timing breakdown:
Section |  min time  |  avg time  |  max time  |%varavg| %total
---------------------------------------------------------------
Pair    | 7947.7     | 8427.9     | 9066.2     | 288.3 | 65.60
Bond    | 156.5      | 176.51     | 185.55     |  46.8 |  1.37
Kspace  | 2142.2     | 2763.9     | 3227.3     | 487.4 | 21.51
Neigh   | 541.12     | 552.79     | 556.85     |  15.8 |  4.30
Comm    | 519.24     | 618.13     | 766.22     | 255.6 |  4.81
Output  | 0.18547    | 0.19562    | 0.35524    |   6.6 |  0.00
Modify  | 201.9      | 279.76     | 356.9      | 291.2 |  2.18
Other   |            | 28.5       |            |       |  0.22

Nlocal:        1000.62 ave        1031 max         945 min
Histogram: 1 1 1 0 4 5 4 5 8 3
Nghost:        11919.9 ave       12032 max       11829 min
Histogram: 4 1 6 4 4 2 5 4 1 1
Neighs:         611022 ave      644991 max      559081 min
Histogram: 1 0 0 5 5 3 7 3 6 2

Total # of neighbors = 19552701
Ave neighs/atom = 610.64026
Ave special neighs/atom = 10.738289
Neighbor list builds = 40402
Dangerous builds = 0
Total wall time: 3:38:39
