units real
atom_style full
boundary p p p

# styles
pair_style lj/charmm/coul/long 8.0 12.0
kspace_style pppm 1e-6
dielectric 1.000000
bond_style harmonic
angle_style harmonic
dihedral_style fourier
improper_style cvff
special_bonds amber
pair_modify mix arithmetic
neighbor 2.0 bin
neigh_modify delay 0 every 1 check yes

# system definition
read_data ../final.data
Reading data file ...
  orthogonal box = (-25.800016 -24.079824 -155.73635) to (25.800016 24.079824 155.73635)
  2 by 2 by 8 MPI processor grid
  reading atoms ...
  82020 atoms
  reading velocities ...
  82020 velocities
  scanning bonds ...
  4 = max bonds/atom
  scanning angles ...
  6 = max angles/atom
  scanning dihedrals ...
  15 = max dihedrals/atom
  scanning impropers ...
  1 = max impropers/atom
  reading bonds ...
  84010 bonds
  reading angles ...
  150000 angles
  reading dihedrals ...
  219910 dihedrals
  reading impropers ...
  6000 impropers
Finding 1-2 1-3 1-4 neighbors ...
  special bond factors lj:    0        0        0.5     
  special bond factors coul:  0        0        0.8333333333333334
     4 = max # of 1-2 neighbors
    11 = max # of 1-3 neighbors
    22 = max # of 1-4 neighbors
    26 = max # of special neighbors
  special bonds CPU = 0.093 seconds
  read_data CPU = 2.026 seconds
# do not reset velocities

# vars
variable dt equal 1.0
variable tLog equal 1000
variable nEvery equal 10
variable nRepeat equal 100
variable boolDump equal 0
variable tDump equal 1000

variable tPreeq equal 10000
variable tPrerun equal 10000
variable tDelay equal 1000
variable tTCrun equal 1000000

# desiered temperature difference
variable Tavg equal 300.0
variable TempDiff equal 100.0
variable Thi equal ${Tavg}+(${TempDiff}/2)
variable Thi equal 300+(${TempDiff}/2)
variable Thi equal 300+(100/2)
variable Tlo equal ${Tavg}-(${TempDiff}/2)
variable Tlo equal 300-(${TempDiff}/2)
variable Tlo equal 300-(100/2)

# defining regions
variable hot_lo equal (lx*0)+xlo
variable hot_hi equal (lx*0.05)+xlo
variable cold_lo equal (lx*0.50)+xlo
variable cold_hi equal (lx*0.55)+xlo

# define heating and cooling block regions
region hot block ${hot_lo} ${hot_hi} INF INF INF INF units box
region hot block -25.8000158555518 ${hot_hi} INF INF INF INF units box
region hot block -25.8000158555518 -23.2200142699966 INF INF INF INF units box
region cold block ${cold_lo} ${cold_hi} INF INF INF INF units box
region cold block 0 ${cold_hi} INF INF INF INF units box
region cold block 0 2.58000158555518 INF INF INF INF units box
compute Thot all temp/region hot
compute Tcold all temp/region cold

# STEP 1 - 1st equilibration (nve)
# 1a - thermo output for md1
thermo_style custom step time temp c_Thot c_Tcold press enthalpy etotal ke pe
thermo_modify colname c_Thot Temp_hot colname c_Tcold Temp_cold
thermo_modify flush yes
thermo ${tLog}
thermo 1000

# 1b - nve equilibration
timestep ${dt}
timestep 1
fix md1 all nve
run ${tPreeq}
run 10000
PPPM initialization ...
  using 12-bit tables for long-range coulomb (src/kspace.cpp:342)
  G vector (1/distance) = 0.27316341
  grid = 60 60 225
  stencil order = 5
  estimated absolute RMS force accuracy = 0.00037618852
  estimated relative force accuracy = 1.1328806e-06
  using double precision FFTW3
  3d grid and FFT values/proc = 47915 28800
Generated 120 of 120 mixed pair_coeff terms from arithmetic mixing rule
Neighbor list info ...
  update: every = 1 steps, delay = 0 steps, check = yes
  max neighbors/atom: 2000, page size: 100000
  master list distance cutoff = 14
  ghost atom cutoff = 14
  binsize = 7, bins = 8 7 45
  1 neighbor lists, perpetual/occasional/extra = 1 0 0
  (1) pair lj/charmm/coul/long, perpetual
      attributes: half, newton on
      pair build: half/bin/newton
      stencil: half/bin/3d
      bin: standard
Per MPI rank memory allocation (min/avg/max) = 39.81 | 40.44 | 41.45 Mbytes
   Step          Time           Temp         Temp_hot      Temp_cold        Press         Enthalpy        TotEng         KinEng         PotEng    
         0   0              300.41615      297.90249      299.08463      42.831017     -571123.67     -571607.16      73446.659     -645053.82    
      1000   1000           299.49981      296.98431      306.43024      1.2905042     -571587.4      -571601.97      73222.629     -644824.6     
      2000   2000           300.56516      299.722        303.00108     -464.25997     -576854.99     -571614.28      73483.09      -645097.37    
      3000   3000           300.4289       300.69139      303.13427     -11.421934     -571729.31     -571600.38      73449.777     -645050.15    
      4000   4000           300.33842      298.25056      300.21638     -42.000571     -572077.46     -571603.35      73427.657     -645031.01    
      5000   5000           300.34401      297.81592      305.25624      15.245438     -571436.74     -571608.83      73429.022     -645037.85    
      6000   6000           299.37306      298.89237      303.46682     -285.02193     -574806.31     -571588.89      73191.642     -644780.54    
      7000   7000           300.51432      294.67728      298.48471      181.1694      -569556.51     -571601.61      73470.661     -645072.27    
      8000   8000           299.59566      297.68368      299.5178       97.488514     -570490.78     -571591.26      73246.063     -644837.32    
      9000   9000           299.65547      296.13698      299.01187      183.10649     -569527.58     -571594.54      73260.686     -644855.23    
     10000   10000          300.62632      300.90582      297.78799     -125.15272     -573017.01     -571604.25      73498.043     -645102.29    
Loop time of 597.148 on 32 procs for 10000 steps with 82020 atoms

Performance: 1.447 ns/day, 16.587 hours/ns, 16.746 timesteps/s, 1.374 Matom-step/s
99.4% CPU use with 32 MPI tasks x 1 OpenMP threads

MPI task timing breakdown:
Section |  min time  |  avg time  |  max time  |%varavg| %total
---------------------------------------------------------------
Pair    | 243.06     | 298.58     | 387.72     | 208.6 | 50.00
Bond    | 6.0837     | 7.3907     | 8.9428     |  29.9 |  1.24
Kspace  | 135.73     | 227.39     | 287.54     | 242.2 | 38.08
Neigh   | 30.956     | 31.51      | 31.822     |   4.2 |  5.28
Comm    | 13.614     | 21.234     | 25.93      |  62.1 |  3.56
Output  | 0.00683    | 0.01036    | 0.012883   |   1.9 |  0.00
Modify  | 0.20781    | 0.31684    | 0.88466    |  31.0 |  0.05
Other   |            | 10.71      |            |       |  1.79

Nlocal:        2563.12 ave        2718 max        2410 min
Histogram: 1 4 4 3 6 4 1 3 4 2
Nghost:        17320.7 ave       18197 max       16810 min
Histogram: 8 6 5 1 2 2 0 0 4 4
Neighs:    1.56168e+06 ave 1.78154e+06 max 1.41866e+06 min
Histogram: 3 3 9 3 5 2 3 0 2 2

Total # of neighbors = 49973640
Ave neighs/atom = 609.28603
Ave special neighs/atom = 10.922214
Neighbor list builds = 518
Dangerous builds = 0
unfix md1

# STEP 2 - pre run
# 2a - impose nve
fix md2 all nve

# 2b - impose thermostating
fix hot all langevin ${Thi} ${Thi} 100.0 57485 tally yes
fix hot all langevin 350 ${Thi} 100.0 57485 tally yes
fix hot all langevin 350 350 100.0 57485 tally yes
fix cold all langevin ${Tlo} ${Tlo} 100.0 12490 tally yes
fix cold all langevin 250 ${Tlo} 100.0 12490 tally yes
fix cold all langevin 250 250 100.0 12490 tally yes
fix_modify hot temp Thot
fix_modify cold temp Tcold
# calculate tdiff of regions
variable tdiff equal c_Thot-c_Tcold

# 2c - thermo output
thermo_style custom step time temp c_Thot c_Tcold f_hot f_cold v_tdiff press enthalpy etotal ke pe
WARNING: New thermo_style command, previous thermo_modify settings will be lost (src/output.cpp:904)
thermo_modify colname c_Thot Temp_hot colname c_Tcold Temp_cold               colname f_hot E_hot colname f_cold E_cold               colname v_tdiff dTemp_step
thermo_modify flush yes
thermo ${tLog}
thermo 1000

# 2d - pre run
run ${tPrerun}
run 10000
PPPM initialization ...
  using 12-bit tables for long-range coulomb (src/kspace.cpp:342)
  G vector (1/distance) = 0.27316341
  grid = 60 60 225
  stencil order = 5
  estimated absolute RMS force accuracy = 0.00037618852
  estimated relative force accuracy = 1.1328806e-06
  using double precision FFTW3
  3d grid and FFT values/proc = 47915 28800
Generated 120 of 120 mixed pair_coeff terms from arithmetic mixing rule
Per MPI rank memory allocation (min/avg/max) = 41.41 | 42.07 | 42.95 Mbytes
   Step          Time           Temp         Temp_hot      Temp_cold        E_hot          E_cold       dTemp_step       Press         Enthalpy        TotEng         KinEng         PotEng    
     10000   10000          300.62632      300.52827      297.78799     -0             -0              2.7402846     -125.15272     -573017.01     -571604.25      73498.043     -645102.29    
     11000   11000          301.12224      354.38048      256.08085     -3252.5793      3241.2269      98.299629     -94.029537     -572638.39     -571576.96      73619.286     -645196.24    
     12000   12000          298.55405      348.95207      250.29604     -4280.8533      4429.6577      98.656033      142.78159     -570104.07     -571715.83      72991.407     -644707.24    
     13000   13000          299.37872      349.01873      251.73298     -4971.5784      5458.5807      97.285755      118.78523     -570708        -572048.89      73193.026     -645241.91    
     14000   14000          298.91982      347.32474      255.77687     -5782.8153      6155.9875      91.54787      -139.58949     -573483.98     -571908.25      73080.832     -644989.08    
     15000   15000          299.95484      353.27405      251.38392     -6542.7227      6958.6749      101.89013      162.59794     -570118.8      -571954.26      73333.876     -645288.14    
     16000   16000          299.20794      349.68075      249.40792     -7176.2725      7573.2355      100.27283     -184.38694     -574005.45     -571924.03      73151.273     -645075.3     
     17000   17000          298.06379      350.3211       256.30963     -7535.1858      8282.7639      94.011471      595.67177     -565543.33     -572267.46      72871.546     -645139.01    
     18000   18000          298.78058      350.886        256.29679     -8266.1973      8847.9816      94.589214      207.39913     -569742.76     -572083.95      73046.791     -645130.74    
     19000   19000          298.40225      347.35697      257.12368     -8872.9152      9673.7429      90.233287     -182.69876     -574372.97     -572310.61      72954.295     -645264.9     
     20000   20000          298.58137      348.65313      252.16939     -9571.9919      10332.757      96.483736     -133.51527     -573756.76     -572249.6       72998.088     -645247.69    
Loop time of 604.608 on 32 procs for 10000 steps with 82020 atoms

Performance: 1.429 ns/day, 16.795 hours/ns, 16.540 timesteps/s, 1.357 Matom-step/s
99.4% CPU use with 32 MPI tasks x 1 OpenMP threads

MPI task timing breakdown:
Section |  min time  |  avg time  |  max time  |%varavg| %total
---------------------------------------------------------------
Pair    | 242.45     | 298.92     | 389.28     | 208.2 | 49.44
Bond    | 6.0559     | 7.3868     | 8.9941     |  29.4 |  1.22
Kspace  | 136.45     | 229.53     | 290.76     | 241.6 | 37.96
Neigh   | 31.416     | 32.01      | 32.311     |   4.3 |  5.29
Comm    | 13.713     | 21.196     | 25.983     |  62.7 |  3.51
Output  | 0.002068   | 0.0025966  | 0.0057129  |   1.2 |  0.00
Modify  | 7.1506     | 14.221     | 23.021     | 132.9 |  2.35
Other   |            | 1.338      |            |       |  0.22

Nlocal:        2563.12 ave        2705 max        2435 min
Histogram: 2 3 6 4 3 5 0 2 4 3
Nghost:        17309.3 ave       18221 max       16795 min
Histogram: 7 6 6 1 4 0 0 3 1 4
Neighs:    1.56148e+06 ave 1.76754e+06 max 1.39602e+06 min
Histogram: 1 2 7 6 6 3 3 0 1 3

Total # of neighbors = 49967391
Ave neighs/atom = 609.20984
Ave special neighs/atom = 10.922214
Neighbor list builds = 524
Dangerous builds = 0
unfix md2

# STEP 3 - md for tc caluclation
# 3a - impose nve
fix md3 all nve

# 3b - calculate and output thermal profile
compute ke all ke/atom
variable temp atom c_ke/(1.5*0.001987204)
compute layers all chunk/atom bin/1d x lower 0.05 units reduced
fix bins all ave/chunk ${nEvery} ${nRepeat} ${tLog} layers v_temp file Tprofile_x_lav.dat
fix bins all ave/chunk 10 ${nRepeat} ${tLog} layers v_temp file Tprofile_x_lav.dat
fix bins all ave/chunk 10 100 ${tLog} layers v_temp file Tprofile_x_lav.dat
fix bins all ave/chunk 10 100 1000 layers v_temp file Tprofile_x_lav.dat

# 3c - reset thermostats to zero energy accumulation
fix hot all langevin ${Thi} ${Thi} 100.0 57485 tally yes
fix hot all langevin 350 ${Thi} 100.0 57485 tally yes
fix hot all langevin 350 350 100.0 57485 tally yes
fix cold all langevin ${Tlo} ${Tlo} 100.0 12490 tally yes
fix cold all langevin 250 ${Tlo} 100.0 12490 tally yes
fix cold all langevin 250 250 100.0 12490 tally yes
fix_modify hot temp Thot
fix_modify cold temp Tcold

# 3c - compute average tdiff
fix ave all ave/time ${nEvery} ${nRepeat} ${tLog} v_tdiff ave running
fix ave all ave/time 10 ${nRepeat} ${tLog} v_tdiff ave running
fix ave all ave/time 10 100 ${tLog} v_tdiff ave running
fix ave all ave/time 10 100 1000 v_tdiff ave running

# 3d - time delay run
variable aTime equal time
variable start_time equal ${aTime}
variable start_time equal 20000
run ${tDelay}
run 1000
PPPM initialization ...
  using 12-bit tables for long-range coulomb (src/kspace.cpp:342)
  G vector (1/distance) = 0.27316341
  grid = 60 60 225
  stencil order = 5
  estimated absolute RMS force accuracy = 0.00037618852
  estimated relative force accuracy = 1.1328806e-06
  using double precision FFTW3
  3d grid and FFT values/proc = 47915 28800
Generated 120 of 120 mixed pair_coeff terms from arithmetic mixing rule
Per MPI rank memory allocation (min/avg/max) = 41.91 | 42.59 | 43.45 Mbytes
   Step          Time           Temp         Temp_hot      Temp_cold        E_hot          E_cold       dTemp_step       Press         Enthalpy        TotEng         KinEng         PotEng    
     20000   20000          298.58137      348.44849      252.16939     -0             -0              96.279098     -133.51527     -573756.76     -572249.6       72998.088     -645247.69    
     21000   21000          299.17621      344.96752      253.3444      -675.01457      464.29163      91.623115      265.61281     -569019.51     -572017.83      73143.516     -645161.35    
Loop time of 60.3534 on 32 procs for 1000 steps with 82020 atoms

Performance: 1.432 ns/day, 16.765 hours/ns, 16.569 timesteps/s, 1.359 Matom-step/s
99.4% CPU use with 32 MPI tasks x 1 OpenMP threads

MPI task timing breakdown:
Section |  min time  |  avg time  |  max time  |%varavg| %total
---------------------------------------------------------------
Pair    | 24.156     | 29.872     | 38.854     |  65.0 | 49.50
Bond    | 0.60761    | 0.73832    | 0.89787    |   9.4 |  1.22
Kspace  | 13.609     | 22.82      | 29.009     |  75.4 | 37.81
Neigh   | 3.1741     | 3.2366     | 3.2706     |   1.4 |  5.36
Comm    | 1.3987     | 2.1234     | 2.5654     |  19.4 |  3.52
Output  | 0.00017802 | 0.00018778 | 0.00035861 |   0.0 |  0.00
Modify  | 0.74976    | 1.4313     | 2.288      |  40.1 |  2.37
Other   |            | 0.131      |            |       |  0.22

Nlocal:        2563.12 ave        2734 max        2443 min
Histogram: 5 2 6 5 3 2 2 4 2 1
Nghost:        17315.1 ave       18174 max       16784 min
Histogram: 6 7 6 1 4 0 0 1 3 4
Neighs:     1.5615e+06 ave 1.78896e+06 max 1.41205e+06 min
Histogram: 1 5 10 3 5 2 2 0 2 2

Total # of neighbors = 49968017
Ave neighs/atom = 609.21747
Ave special neighs/atom = 10.922214
Neighbor list builds = 53
Dangerous builds = 0

# 3f - calculate kappa
variable kappa_inst equal (0.5*(abs(f_hot)+abs(f_cold))/(time-${start_time})/(ly*lz)/2.0)*(lx/2.0)/v_tdiff*69478.5785
variable kappa_inst equal (0.5*(abs(f_hot)+abs(f_cold))/(time-20000)/(ly*lz)/2.0)*(lx/2.0)/v_tdiff*69478.5785
variable kappa equal (0.5*(abs(f_hot)+abs(f_cold))/(time-${start_time})/(ly*lz)/2.0)*(lx/2.0)/f_ave*69478.5785
variable kappa equal (0.5*(abs(f_hot)+abs(f_cold))/(time-20000)/(ly*lz)/2.0)*(lx/2.0)/f_ave*69478.5785

# 3e - thermo out
# dump dump_tc all custom 1000 dump.tc_x_ehex.lammpstrj id type mol x y z ix iy iz vx vy vz
thermo_style custom step time v_kappa v_kappa_inst c_Thot c_Tcold v_tdiff f_ave temp press enthalpy etotal ke pe
WARNING: New thermo_style command, previous thermo_modify settings will be lost (src/output.cpp:904)
thermo_modify colname v_kappa kappa colname v_kappa_inst kappa_inst               colname c_Thot Temp_hot colname c_Tcold Temp_cold               colname v_tdiff dTemp_step colname f_ave dTemp
thermo_modify flush yes
thermo ${tLog}
thermo 1000

# 2g - md run for kappa calculation
# optional traj dump
if "${boolDump} == 1" then     "dump tc_dump all atom ${tDump} dump.tc_x.lammpstrj"
run ${tTCrun}
run 1000000
PPPM initialization ...
  using 12-bit tables for long-range coulomb (src/kspace.cpp:342)
  G vector (1/distance) = 0.27316341
  grid = 60 60 225
  stencil order = 5
  estimated absolute RMS force accuracy = 0.00037618852
  estimated relative force accuracy = 1.1328806e-06
  using double precision FFTW3
  3d grid and FFT values/proc = 47915 28800
Generated 120 of 120 mixed pair_coeff terms from arithmetic mixing rule
Per MPI rank memory allocation (min/avg/max) = 42.41 | 43.09 | 43.95 Mbytes
   Step          Time          kappa        kappa_inst      Temp_hot      Temp_cold      dTemp_step       dTemp           Temp          Press         Enthalpy        TotEng         KinEng         PotEng    
     21000   21000          0              0              344.96752      253.3444       91.623115      93.83439       299.17621      265.61281     -569019.51     -572017.83      73143.516     -645161.35    
     22000   22000          0.14181239     0.13818341     353.52402      255.92108      97.602932      95.105276      298.93895     -304.80736     -575526.39     -572085.62      73085.51      -645171.13    
     23000   23000          0.20723038     0.23440619     340.07818      256.17297      83.905207      94.908378      297.80075      114.43438     -571142.16     -572433.93      72807.239     -645241.17    
     24000   24000          0.23059878     0.22259934     346.40491      248.89626      97.508644      94.126083      298.77515     -151.05653     -574158.47     -572453.29      73045.464     -645498.76    
     25000   25000          0.22425592     0.22842845     346.55988      253.70974      92.850147      94.577731      299.07249      31.230324     -572112.06     -572464.6       73118.158     -645582.76    
     26000   26000          0.24706322     0.26620497     341.77505      253.88975      87.885292      94.694391      298.9112       118.0984      -570817.39     -572150.52      73078.725     -645229.25    
     27000   27000          0.27220232     0.26224491     348.00151      249.65785      98.343662      94.746163      298.74718     -202.62701     -574136.97     -571849.65      73038.626     -644888.28    
     28000   28000          0.27683582     0.26101106     351.12921      250.53688      100.59233      94.842176      299.41705     -225.58273     -574537.94     -571991.49      73202.397     -645193.89    
     29000   29000          0.28159897     0.27945324     347.91016      252.25565      95.654517      94.925645      298.11491     -287.73351     -575535.75     -572287.72      72884.044     -645171.76    
     30000   30000          0.28351717     0.31108521     343.87404      257.4719       86.402137      94.803521      298.86259     -101.8429      -573296.03     -572146.4       73066.841     -645213.24    
     31000   31000          0.29512704     0.27649967     352.02157      250.78259      101.23898      94.849131      298.4113      -248.98798     -575207.34     -572396.68      72956.507     -645353.19    
     32000   32000          0.30175642     0.29242226     348.77714      250.89953      97.877612      94.849989      298.91973     -193.22105     -574672.41     -572491.27      73080.809     -645572.07    
     33000   33000          0.29781867     0.28768111     350.39154      252.01499      98.376555      95.02788       297.45797      299.27437     -568868.02     -572246.32      72723.435     -644969.76    
     34000   34000          0.29637942     0.29216838     347.8018       251.2983       96.5035        95.132353      298.84961     -36.291175     -572531.65     -572121.99      73063.666     -645185.65    
     35000   35000          0.2996771      0.28215544     354.39034      253.20627      101.18407      95.267993      299.3521       179.83718     -570083.12     -572113.18      73186.518     -645299.7     
     36000   36000          0.29972801     0.28524641     353.19518      252.89715      100.29803      95.452051      297.94654      46.571113     -571598.34     -572124.05      72842.882     -644966.93    
     37000   37000          0.29639686     0.30786912     340.76157      248.85489      91.906684      95.464         297.76296     -213.08014     -575269.75     -572864.44      72798         -645662.44    
     38000   38000          0.29757784     0.29430983     350.0404       253.49145      96.548951      95.488646      297.91174      21.623701     -572460.08     -572704.18      72834.375     -645538.55    
     39000   39000          0.30038167     0.28953761     351.80984      252.5762       99.233645      95.651215      297.42049     -121.23655     -573905.88     -572537.32      72714.272     -645251.59    
     40000   40000          0.29675328     0.32002275     344.37545      255.7573       88.61815       95.56701       297.10589     -107.80417     -574033.73     -572816.8       72637.357     -645454.16    
     41000   41000          0.30516045     0.28890597     351.66603      250.73437      100.93166      95.555499      297.8475       134.69227     -571128.59     -572649.04      72818.669     -645467.71    
     42000   42000          0.30697301     0.2950011      352.83187      253.45352      99.378353      95.502607      299.27789      40.454741     -571854.93     -572311.6       73168.373     -645479.97    
     43000   43000          0.30273876     0.29087717     352.86639      253.46636      99.400028      95.505441      297.96666     -447.67626     -577719.18     -572665.67      72847.8       -645513.47    
     44000   44000          0.30313938     0.3062712      347.42915      252.8758       94.553352      95.530209      296.93506     -216.79534     -575224.11     -572776.85      72595.591     -645372.44    
     45000   45000          0.30309605     0.31980262     346.39689      255.83334      90.563557      95.555396      299.04323     -81.464986     -573522.26     -572602.66      73111.004     -645713.66    
     46000   46000          0.30467615     0.30024796     345.11027      248.15052      96.95975       95.550526      297.72054      127.46243     -571383.53     -572822.37      72787.628     -645609.99    
     47000   47000          0.30297871     0.29906544     350.4471       253.58786      96.859232      95.608199      298.06259      103.84866     -571474.76     -572647.03      72871.255     -645518.29    
     48000   48000          0.29935971     0.30796475     346.62179      253.58868      93.033108      95.70733       297.19968     -103.02798     -573886.07     -572723.06      72660.286     -645383.34    
     49000   49000          0.30020616     0.32438615     345.19463      256.66243      88.532202      95.662993      298.61871      91.462786     -571643.52     -572675.98      73007.216     -645683.19    
     50000   50000          0.30250701     0.31694627     346.36898      255.11987      91.249112      95.604616      298.1347      -184.09806     -574665.69     -572587.53      72888.884     -645476.42    
     51000   51000          0.30283024     0.27511898     350.66427      245.38365      105.28062      95.646646      298.20376     -330.05839     -576274.37     -572548.56      72905.769     -645454.33    
     52000   52000          0.29942126     0.29134736     349.49683      251.17153      98.325302      95.673957      299.33761      129.7881      -571259.79     -572724.88      73182.976     -645907.85    
     53000   53000          0.29831291     0.30157312     352.764        258.13147      94.632532      95.666755      297.61456     -57.491562     -573184.06     -572535.08      72761.718     -645296.79    
     54000   54000          0.29828934     0.293146       347.97051      250.52737      97.443148      95.762954      296.95016     -28.268303     -572895.34     -572576.24      72599.285     -645175.52    
     55000   55000          0.29817401     0.33432811     337.23339      251.87596      85.357434      95.707165      296.94209     -156.52739     -574729.02     -572962.09      72597.312     -645559.4     
     56000   56000          0.29499513     0.31436789     342.42998      252.60745      89.822522      95.721298      297.85439     -412.93773     -577475.67     -572814.3       72820.352     -645634.65    
     57000   57000          0.29780287     0.32150229     342.83195      254.195        88.636953      95.690761      296.64466     -81.433128     -573740.17     -572820.92      72524.593     -645345.52    
     58000   58000          0.30007437     0.29372201     346.40565      248.55856      97.84709       95.775739      297.21973     -310.95522     -576097.33     -572587.17      72665.188     -645252.36    
     59000   59000          0.30021841     0.29426591     345.20405      247.53743      97.666617      95.730159      296.73946      265.39343     -569711.84     -572707.69      72547.771     -645255.46    
     60000   60000          0.30164972     0.29972887     348.09879      251.77129      96.327506      95.71411       298.3416      -8.4009233     -572529.84     -572435.01      72939.467     -645374.47    
     61000   61000          0.30109828     0.27784834     352.52873      248.81932      103.70941      95.701267      299.16148     -167.14983     -574365.07     -572478.23      73139.914     -645618.15    
     62000   62000          0.30132972     0.2999208      344.10328      247.91907      96.184206      95.734481      296.84589      22.582036     -572411.15     -572666.06      72573.792     -645239.85    
     63000   63000          0.3020492      0.30390547     345.55604      250.43955      95.116483      95.701033      297.74397     -32.265508     -573161.4      -572797.18      72793.356     -645590.53    
     64000   64000          0.30289153     0.273493       354.85313      248.88702      105.96611      95.681085      297.09769      98.83409      -571765.75     -572881.42      72635.352     -645516.78    
     65000   65000          0.30429096     0.33293479     335.06448      247.58287      87.481606      95.716516      298.64346     -62.78302      -573316.56     -572607.85      73013.266     -645621.11    
     66000   66000          0.30615634     0.29740344     353.08711      254.54017      98.546937      95.729514      298.84321      169.10325     -570394.03     -572302.92      73062.101     -645365.02    
     67000   67000          0.30510179     0.31368147     345.5966       252.46729      93.129307      95.748168      298.20412     -403.61466     -577334.54     -572778.41      72905.855     -645684.27    
     68000   68000          0.30504892     0.3232495      346.05057      255.7389       90.311666      95.700063      297.45314     -88.956404     -573945.99     -572941.82      72722.253     -645664.07    
     69000   69000          0.30706847     0.31458733     343.37922      249.99267      93.386544      95.673203      296.53505     -202.87553     -575219.03     -572928.91      72497.796     -645426.7     
     70000   70000          0.30791359     0.32451771     346.78482      256.03286      90.751961      95.645725      298.54936      146.71739     -570943.97     -572600.16      72990.26      -645590.42    
     71000   71000          0.30640213     0.33683592     344.13372      257.13609      86.997624      95.638777      297.95467     -110.97522     -573862.63     -572609.9       72844.87      -645454.77    
     72000   72000          0.3071856      0.31771986     346.95417      254.49558      92.458589      95.629254      296.89628     -47.880103     -573153.98     -572613.49      72586.11      -645199.6     
     73000   73000          0.30840882     0.30842361     345.8545       250.20144      95.653057      95.657646      296.89781      328.73558     -569131.43     -572842.3       72586.485     -645428.78    
     74000   74000          0.30904232     0.334951       342.08048      253.81339      88.267095      95.667         298.35377     -217.32924     -574785.76     -572332.48      72942.443     -645274.92    
     75000   75000          0.3087226      0.31583162     349.03471      255.50597      93.528744      95.682449      299.01553      240.35183     -569613.71     -572326.88      73104.232     -645431.11    
     76000   76000          0.30993546     0.30994205     346.51776      250.78233      95.735438      95.73747       298.4365       131.9593      -571020.85     -572510.45      72962.669     -645473.12    
     77000   77000          0.30970647     0.30747889     346.54904      250.13726      96.411785      95.718338      298.48182     -82.796894     -573237.59     -572302.95      72973.749     -645276.7     
     78000   78000          0.30964619     0.33619888     342.64884      254.49414      88.154701      95.714117      298.70913      51.373686     -571483.04     -572062.97      73029.321     -645092.29    
     79000   79000          0.30939001     0.35757431     337.42101      254.59769      82.823321      95.7222        297.9947      -80.890257     -573091.22     -572178.11      72854.656     -645032.76    
     80000   80000          0.31077772     0.31211862     354.14682      258.84199      95.304833      95.716042      300.26954     -31.902733     -571963.27     -571603.15      73410.815     -645013.96    
     81000   81000          0.30994071     0.31766608     346.30284      252.89606      93.40678       95.734973      300.18754     -65.100586     -572752.88     -572018         73390.768     -645408.77    
     82000   82000          0.30850686     0.29949207     348.23199      249.59598      98.636016      95.753803      298.60359      77.822783     -571038.02     -571916.51      73003.52      -644920.03    
     83000   83000          0.30801251     0.3203593      347.08244      255.06774      92.014705      95.703146      299.50882     -307.13317     -575605.21     -572138.2       73224.833     -645363.03    
     84000   84000          0.30892713     0.29636057     354.61838      254.86318      99.755199      95.697349      298.37592     -198.70045     -574337.21     -572094.21      72947.858     -645042.07    
     85000   85000          0.30972166     0.32739114     343.47304      252.96436      90.508676      95.672155      298.33338     -327.23466     -576018.58     -572324.65      72937.457     -645262.11    
     86000   86000          0.31041636     0.31323056     349.6036       254.82853      94.775063      95.634284      299.15649     -367.94044     -576244.61     -572091.18      73138.693     -645229.87    
     87000   87000          0.30848316     0.32379885     348.22555      257.11349      91.11206       95.635626      298.08934      52.842434     -571828.39     -572424.89      72877.794     -645302.68    
     88000   88000          0.31118918     0.33048338     343.96076      253.91282      90.047943      95.63105       297.84089      104.32734     -571221.66     -572399.34      72817.052     -645216.39    
     89000   89000          0.31215891     0.28156019     355.02016      248.98198      106.03818      95.644008      299.32017     -36.57608      -572860.88     -572448         73178.711     -645626.71    
     90000   90000          0.31061018     0.3180804      348.62084      255.22938      93.391456      95.637535      299.45612      321.68089     -568374.95     -572006.19      73211.949     -645218.13    
     91000   91000          0.31057111     0.31832482     347.91063      254.58756      93.323071      95.652971      299.77129      572.30385     -565801.16     -572261.51      73289.003     -645550.51    
     92000   92000          0.31078948     0.34839852     343.67603      258.35917      85.316863      95.641167      299.58928      137.21315     -570492.8      -572041.7       73244.504     -645286.21    
     93000   93000          0.31139674     0.29668047     349.85415      249.48758      100.36657      95.623361      298.75785     -88.789141     -572992.45     -571990.17      73041.232     -645031.4     
     94000   94000          0.31211255     0.32078697     341.46607      248.40076      93.065308      95.651833      299.6016      -154.81854     -573984.14     -572236.5       73247.515     -645484.02    
     95000   95000          0.31151177     0.32185711     344.41511      251.80484      92.610276      95.685874      298.73103     -6.0141371     -572287.16     -572219.27      73034.677     -645253.95    
     96000   96000          0.31123914     0.30861216     346.9263       250.458        96.468294      95.654066      299.11245      36.941879     -571717.55     -572134.57      73127.927     -645262.49    
     97000   97000          0.31157022     0.31584983     349.51162      255.16216      94.349461      95.645409      299.4883      -542.37416     -578137.29     -572014.8       73219.816     -645234.61    
     98000   98000          0.31159823     0.31335109     347.31263      252.17248      95.140152      95.675352      297.97739      24.282005     -571914.27     -572188.38      72850.424     -645038.8     
     99000   99000          0.31166831     0.29757057     352.46096      252.23473      100.22623      95.692687      297.62656      5.7514644     -572137.79     -572202.72      72764.651     -644967.37    
    100000   100000         0.31180968     0.29992481     351.53885      252.04457      99.49428       95.701978      298.76273      247.05039     -569598.58     -572387.36      73042.425     -645429.79    
    101000   101000         0.31030021     0.33003944     345.42755      255.46883      89.958721      95.681294      298.22567     -198.58722     -574536.25     -572294.53      72911.125     -645205.66    
    102000   102000         0.31112888     0.29239754     353.93849      252.14196      101.79653      95.667928      298.43631     -28.788002     -572673.86     -572348.89      72962.622     -645311.51    
    103000   103000         0.31060036     0.30179832     353.05785      254.59633      98.461527      95.671247      298.91739     -329.32741     -575961.88     -572244.33      73080.238     -645324.57    
    104000   104000         0.30965524     0.30426184     345.60582      248.23207      97.373756      95.677755      297.97392     -245.34234     -575098.46     -572328.95      72849.577     -645178.53    
    105000   105000         0.31069084     0.29890211     351.88259      252.42157      99.461023      95.687115      297.75267     -254.35906     -575434.36     -572563.08      72795.484     -645358.56    
    106000   106000         0.31060136     0.31689267     344.46812      250.69198      93.776139      95.675597      298.00655      20.180984     -572276        -572503.81      72857.553     -645361.36    
    107000   107000         0.30960267     0.2846721      353.30042      249.25917      104.04125      95.66339       299.26921     -63.087648     -573271.66     -572559.5       73166.251     -645725.75    
    108000   108000         0.31090179     0.31907005     344.10142      250.86377      93.237649      95.68726       297.71654     -248.47839     -575257.25     -572452.35      72786.651     -645239       
    109000   109000         0.31039747     0.29438981     348.82441      247.93178      100.89263      95.689442      297.896       -102.59269     -573572.74     -572414.64      72830.526     -645245.16    
    110000   110000         0.31077962     0.29569348     348.19913      247.63622      100.56291      95.681298      298.36424      275.08542     -569400.07     -572505.32      72945.002     -645450.32    
    111000   111000         0.31101273     0.30491591     346.2198       248.58057      97.639224      95.725191      298.25418      189.07579     -570432.94     -572567.29      72918.094     -645485.38    
    112000   112000         0.30975889     0.28019535     356.12278      250.28346      105.83932      95.737962      297.90754      75.091832     -571793.71     -572641.37      72833.348     -645474.71    
    113000   113000         0.31075592     0.28695708     354.38276      250.68356      103.6992       95.757529      296.88147     -176.7813      -574390.72     -572395.16      72582.49      -644977.65    
    114000   114000         0.31088357     0.28947625     354.58068      251.76595      102.81472      95.734941      298.72726      473.19037     -567403.43     -572744.95      73033.754     -645778.7     
    115000   115000         0.31151664     0.29512947     353.7811       252.71806      101.06304      95.74667       298.49325     -120.6239      -574036.46     -572674.81      72976.542     -645651.36    
    116000   116000         0.31119339     0.31772816     345.72394      251.92829      93.795648      95.765269      297.27387     -18.388632     -572837.29     -572629.72      72678.425     -645308.14    
    117000   117000         0.31204712     0.29264992     350.92815      248.82123      102.10691      95.759831      296.93822     -35.105186     -573183.41     -572787.13      72596.364     -645383.49    
    118000   118000         0.31172944     0.31955514     352.12757      258.71128      93.416289      95.761425      297.86495     -263.71655     -575553.4      -572576.49      72822.934     -645399.42    
    119000   119000         0.31203678     0.31283676     342.29516      246.7907       95.50446       95.74931       296.89428     -43.439655     -573298.3      -572807.94      72585.623     -645393.56    
    120000   120000         0.31211677     0.30824434     345.22319      248.24807      96.975118      95.771948      297.74007      137.63822     -571516.64     -573070.34      72792.403     -645862.75    
    121000   121000         0.31134977     0.30657482     352.54293      255.24362      97.299304      95.807092      296.52488      229.06084     -570540.72     -573126.43      72495.31      -645621.75    
    122000   122000         0.31259951     0.29291876     352.28249      250.01596      102.26653      95.828         298.39068      567.31875     -566365.26     -572769.33      72951.467     -645720.8     
    123000   123000         0.31363793     0.28102527     356.42952      249.46991      106.95961      95.837749      299.10556     -65.066284     -573226.93     -572492.44      73126.242     -645618.68    
    124000   124000         0.31291757     0.31024924     349.58192      252.87463      96.707286      95.882639      297.0647       28.164252     -572514.52     -572832.45      72627.287     -645459.74    
    125000   125000         0.31213674     0.29921319     348.64352      248.61347      100.03005      95.888456      298.19141     -38.167188     -573466.5      -573035.65      72902.749     -645938.4     
    126000   126000         0.31135205     0.34095862     344.71033      257.16928      87.541042      95.865349      297.51938     -23.744139     -573107.56     -572839.53      72738.448     -645577.98    
    127000   127000         0.3125362      0.32695136     343.27504      251.64536      91.629683      95.855933      297.59259     -264.61397     -575911.83     -572924.78      72756.348     -645681.13    
    128000   128000         0.31293286     0.3136973      346.07041      250.44384      95.626574      95.860173      298.68277      132.17543     -571449.29     -572941.33      73022.877     -645964.2     
    129000   129000         0.31309426     0.29809391     349.59037      248.90219      100.68819      95.864213      298.9964      -78.928038     -573341.34     -572450.37      73099.555     -645549.93    
    130000   130000         0.31212275     0.35357865     339.52404      254.87886      84.645178      95.887686      297.98352     -136.99252     -574175.18     -572628.76      72851.922     -645480.68    
    131000   131000         0.31155984     0.31830508     345.5129       251.65637      93.856533      95.888517      296.5805      -250.22962     -575685.55     -572860.88      72508.907     -645369.79    
    132000   132000         0.31209665     0.32272266     348.14423      255.42032      92.723908      95.880897      296.71888      128.70829     -571474.75     -572927.65      72542.74      -645470.39    
    133000   133000         0.31248592     0.29431896     353.38667      251.59723      101.78944      95.871724      298.06542     -64.283064     -573320.4      -572594.75      72871.945     -645466.7     
    134000   134000         0.31307274     0.30507316     347.90181      249.49592      98.405889      95.89144       297.40759     -164.26526     -574262.99     -572408.71      72711.117     -645119.83    
    135000   135000         0.3129574      0.30279405     349.37949      250.27595      99.103532      95.885125      299.12783     -127.07821     -573768.53     -572334.03      73131.688     -645465.71    
    136000   136000         0.31292249     0.33370136     340.8072       250.89931      89.907886      95.878005      298.67578      47.668305     -571662.33     -572200.43      73021.169     -645221.6     
    137000   137000         0.31367195     0.31023665     342.52824      245.59222      96.936025      95.87439       298.04389     -174.01803     -574130.52     -572166.15      72866.681     -645032.83    
    138000   138000         0.31350674     0.32046438     344.95067      251.14771      93.802955      95.884719      299.57185      53.619524     -571606.85     -572212.12      73240.242     -645452.37    
    139000   139000         0.31296995     0.31462097     352.03496      256.64026      95.394705      95.897941      299.09666      247.52316     -569565.85     -572359.97      73124.068     -645484.04    
    140000   140000         0.31290421     0.27930149     360.56188      253.14275      107.41913      95.88341       298.74977      380.31776     -568336.31     -572629.46      73039.257     -645668.71    
    141000   141000         0.31262866     0.30505878     351.83333      253.5563       98.27703       95.897384      298.54696     -139.56992     -574141.84     -572566.33      72989.675     -645556       
    142000   142000         0.31287073     0.31292932     347.42791      251.54253      95.885378      95.903334      298.26142      87.885334     -571661.17     -572653.25      72919.865     -645573.11    
    143000   143000         0.31333012     0.28075807     356.12481      249.11827      107.00654      95.882736      296.93601      98.065118     -571591.31     -572698.3       72595.823     -645294.13    
    144000   144000         0.31403547     0.26732504     360.50894      247.85202      112.65692      95.900046      298.84432     -69.5564       -573673.84     -572888.67      73062.374     -645951.04    
    145000   145000         0.31370984     0.32391915     347.19969      254.31453      92.885155      95.90799       297.11707     -110.9482      -574405.57     -573153.15      72640.091     -645793.24    
    146000   146000         0.31313941     0.33470094     349.49133      259.76288      89.72845       95.906793      297.66144     -83.195482     -573449.29     -572510.15      72773.18      -645283.33    
    147000   147000         0.31299233     0.30810953     346.46296      249.0209       97.442064      95.92193       297.73479     -19.248018     -572919.33     -572702.05      72791.112     -645493.16    
    148000   148000         0.31322589     0.30221111     351.39535      251.99102      99.404329      95.908713      297.87137      36.938309     -572135.95     -572552.92      72824.504     -645377.43    
    149000   149000         0.31304811     0.32914042     345.13447      253.91451      91.219957      95.909139      299.4063       43.933021     -572240.11     -572736.04      73199.767     -645935.8     
    150000   150000         0.31333283     0.29667201     349.43772      248.1363       101.30142      95.914928      299.27316     -189.98595     -574685.37     -572540.75      73167.218     -645707.96    
    151000   151000         0.31387668     0.30682278     343.93563      245.83112      98.104518      95.899766      297.36783      18.568626     -572376.01     -572585.62      72701.397     -645287.02    
    152000   152000         0.31399841     0.3017147      348.91855      249.10242      99.816126      95.911289      298.61475      191.70178     -570281.74     -572445.73      73006.247     -645451.98    
    153000   153000         0.31451627     0.27724803     354.1151       245.31161      108.8035       95.910952      297.92717     -543.21482     -578530        -572398.02      72838.146     -645236.17    
    154000   154000         0.31304102     0.32054077     347.71115      254.04672      93.664431      95.908418      298.0181      -20.398121     -573147.42     -572917.16      72860.377     -645777.54    
    155000   155000         0.31417045     0.31859535     348.53452      253.95394      94.580575      95.912687      297.99514     -312.20806     -576116.15     -572591.85      72854.764     -645446.61    
    156000   156000         0.31439552     0.31592224     350.15671      254.71887      95.437837      95.90129       296.23693     -46.309224     -573129.44     -572606.68      72424.91      -645031.59    
    157000   157000         0.31451746     0.29945541     350.39506      249.66755      100.72752      95.903737      298.72052      75.44025      -571839.71     -572691.31      73032.107     -645723.41    
    158000   158000         0.31437178     0.29331429     349.09351      246.29345      102.80006      95.914227      297.67337      368.08041     -568482.83     -572637.84      72776.095     -645413.94    
    159000   159000         0.31330101     0.35036119     344.85064      259.07495      85.775682      95.922034      298.02204     -25.175142     -572627        -572342.81      72861.341     -645204.15    
    160000   160000         0.31366563     0.30467912     349.55049      250.8029       98.747598      95.91848       298.64027      222.67327     -569954.2      -572467.81      73012.487     -645480.3     
    161000   161000         0.31349761     0.30318983     348.36601      249.17852      99.187491      95.926214      296.63904      63.42845      -571920.37     -572636.37      72523.22      -645159.59    
    162000   162000         0.3133631      0.30008948     352.01973      251.84996      100.16977      95.926718      298.86743     -160.45756     -574212.75     -572401.45      73068.023     -645469.48    
    163000   163000         0.31366516     0.31015133     346.82994      249.81273      97.017206      95.93037       296.36679     -193.35505     -575093.7      -572911.04      72456.659     -645367.7     
    164000   164000         0.31335174     0.30723666     344.41343      246.58131      97.832122      95.922921      296.81138     -44.550601     -573354.28     -572851.38      72565.355     -645416.73    
    165000   165000         0.31305407     0.32712321     346.83671      255.03012      91.806585      95.932516      297.30681      62.126624     -571775.81     -572477.11      72686.477     -645163.59    
    166000   166000         0.31306993     0.31456097     348.63473      253.15322      95.48151       95.936256      298.57885      352.09223     -568459.07     -572433.6       72997.471     -645431.07    
    167000   167000         0.31236776     0.27542234     357.7667       248.95135      108.81536      95.945175      299.57091      5.1326979     -572418.47     -572476.41      73240.012     -645716.42    
    168000   168000         0.31263282     0.33384038     339.8844       250.04392      89.840475      95.934835      297.86435      26.506526     -572337.6      -572636.81      72822.787     -645459.6     
    169000   169000         0.3122224      0.35482708     342.07946      257.65148      84.427983      95.948704      297.66161     -2.5527629     -572712.64     -572683.82      72773.222     -645457.04    
    170000   170000         0.31279709     0.28163441     352.02634      245.4394       106.58694      95.968123      299.35821     -222.33861     -574938        -572428.17      73188.012     -645616.18    
    171000   171000         0.3121745      0.32380053     345.85369      253.32613      92.527563      95.973482      298.92638     -44.845824     -572728.18     -572221.95      73082.436     -645304.38    
    172000   172000         0.31257447     0.2975331      350.94174      250.10451      100.83723      95.984848      298.63863     -659.01299     -579616.75     -572177.6       73012.086     -645189.69    
    173000   173000         0.31217804     0.3161505      348.82737      254.04511      94.782257      95.98836       298.39985     -144.74427     -573662.31     -572028.39      72953.708     -644982.1     
    174000   174000         0.31214327     0.2904886      353.14658      250.019        103.12758      95.973187      300.21611     -252.34911     -574986.57     -572137.98      73397.753     -645535.73    
    175000   175000         0.31250355     0.29145637     352.21042      249.29616      102.91426      95.982963      298.61253     -187.88458     -574133.37     -572012.47      73005.706     -645018.18    
    176000   176000         0.31190851     0.32256031     345.58615      252.7735       92.812649      95.982238      298.14896      84.731456     -571442.79     -572399.26      72892.37      -645291.63    
    177000   177000         0.31217197     0.31836149     351.11241      257.00319      94.10922       95.975147      299.80814     -209.58335     -574987.6      -572621.76      73298.011     -645919.77    
    178000   178000         0.31200589     0.29703764     346.7507       245.92115      100.82955      95.992326      297.48606      259.5198      -569780.65     -572710.19      72730.303     -645440.49    
    179000   179000         0.31195776     0.29880241     352.0133       251.78352      100.22978      96.003062      298.23201      153.48933     -570906.42     -572639.05      72912.675     -645551.73    
    180000   180000         0.31137986     0.30722961     350.58761      253.26983      97.317783      96.020676      296.77092      166.08737     -571009.38     -572884.22      72555.462     -645439.68    
    181000   181000         0.3109214      0.29906209     347.45976      247.63004      99.829726      96.021975      298.37494     -369.45037     -577204.2      -573033.73      72947.619     -645981.35    
    182000   182000         0.31164685     0.31068083     348.77207      252.45626      96.315811      96.017258      297.91864     -308.97356     -576383.65     -572895.86      72836.06      -645731.92    
    183000   183000         0.31032545     0.33695019     343.92287      255.49027      88.432592      96.019773      296.92053      347.2992      -569368.46     -573288.88      72592.04      -645880.92    
    184000   184000         0.31129428     0.30246493     352.8119       254.00099      98.810913      96.008303      296.741        84.314294     -572009.34     -572961.11      72548.147     -645509.26    
    185000   185000         0.31165558     0.27518186     353.22644      244.4822       108.74424      96.017667      296.70499     -228.4214      -575959.29     -573380.79      72539.343     -645920.14    
    186000   186000         0.31146883     0.28882645     351.7516       248.19562      103.55598      96.02793       297.39151      6.1579361     -573113.28     -573182.79      72707.185     -645889.97    
    187000   187000         0.31096212     0.3091215      352.11947      255.5205       96.598966      96.027187      296.86646      236.85622     -570578.2      -573251.91      72578.822     -645830.73    
    188000   188000         0.31112858     0.31789787     345.42336      251.45739      93.965973      96.010409      296.3333      -149.2741      -574913.72     -573228.66      72448.472     -645677.14    
    189000   189000         0.31137923     0.29563795     354.09785      252.97253      101.12533      96.013097      298.15219      137.23885     -571224.09     -572773.28      72893.159     -645666.44    
    190000   190000         0.31135714     0.3198298      345.4438       251.94973      93.494068      96.038231      298.24444     -112.25619     -573992.03     -572724.85      72915.714     -645640.56    
    191000   191000         0.31098307     0.33767447     345.70251      257.26111      88.4414        96.032246      297.28699      212.93935     -570485.53     -572889.26      72681.633     -645570.89    
    192000   192000         0.31134452     0.29041188     351.14866      248.18457      102.96409      96.041503      297.1506       311.82576     -569041.65     -572561.63      72648.288     -645209.92    
    193000   193000         0.31121275     0.28440157     352.56959      247.47747      105.09212      96.038367      297.88773     -130.83016     -574335.04     -572858.19      72828.503     -645686.69    
    194000   194000         0.31082375     0.32375876     344.16675      251.96822      92.198529      96.035395      297.83232     -68.7492       -573671.09     -572895.02      72814.957     -645709.98    
    195000   195000         0.31073874     0.31181686     347.10499      251.40441      95.700583      96.032618      297.97292     -218.96966     -575224.16     -572752.37      72849.33      -645601.7     
    196000   196000         0.31087125     0.29193621     354.63211      252.37863      102.25348      96.025263      298.55513      237.66305     -570054.57     -572737.38      72991.672     -645729.06    
    197000   197000         0.31106249     0.33002446     346.46071      255.95708      90.503628      96.020614      298.74325     -61.848373     -573359.95     -572661.79      73037.663     -645699.45    
    198000   198000         0.31125609     0.313495       351.80522      256.49007      95.315149      96.000765      298.19877      384.76371     -568173.55     -572516.89      72904.548     -645421.43    
    199000   199000         0.31183257     0.30893701     345.04776      248.14041      96.907354      96.007508      296.96447      102.2677      -571371.43     -572525.86      72602.781     -645128.64    
    200000   200000         0.31160366     0.30603075     351.72017      253.96319      97.756983      96.008636      297.60228     -332.95664     -576416.19     -572657.67      72758.717     -645416.39    
    201000   201000         0.31132763     0.32252741     344.03323      251.36421      92.669021      96.002718      297.96676      115.94542     -571231.41     -572540.24      72847.825     -645388.07    
    202000   202000         0.31168183     0.32543065     344.05276      252.10697      91.945789      96.001678      297.75857      501.2177      -566782.55     -572440.45      72796.926     -645237.38    
    203000   203000         0.31096436     0.33855879     344.82465      256.65874      88.16591       95.989597      299.48292      53.090114     -571796.68     -572395.98      73218.5       -645614.48    
    204000   204000         0.31142516     0.3085883      355.33313      258.4731       96.860025      95.977699      299.3055      -26.56017      -572592.47     -572292.65      73175.123     -645467.77    
    205000   205000         0.3104531      0.33474138     341.03814      252.01595      89.02219       95.986836      298.10325     -460.29901     -577895.42     -572699.42      72881.194     -645580.62    
    206000   206000         0.31067639     0.32047287     348.21207      255.15171      93.060364      95.994812      298.69815     -15.676156     -572565.25     -572388.29      73026.638     -645414.93    
    207000   207000         0.31098801     0.29550005     351.05579      250.01741      101.03837      96.006415      298.81109     -212.67874     -574668.47     -572267.69      73054.25      -645321.94    
    208000   208000         0.31005048     0.28748003     357.20931      253.67597      103.53334      95.99652       299.8393      -93.937408     -573461.3      -572400.91      73305.63      -645706.54    
    209000   209000         0.31026634     0.31713186     347.60718      253.71285      93.894334      95.972012      298.28708      183.28663     -570375.25     -572444.25      72926.139     -645370.39    
    210000   210000         0.31061712     0.30252835     347.15899      248.62688      98.532113      95.966243      298.3888      -204.75129     -574879.19     -572567.89      72951.007     -645518.9     
    211000   211000         0.31025688     0.3148605      344.1006       249.53953      94.561068      95.964174      297.15768     -115.49189     -573996.29     -572692.58      72650.018     -645342.6     
    212000   212000         0.31028564     0.31258805     346.46805      251.22835      95.239705      95.946412      296.53729      126.1796      -571398.58     -572822.93      72498.345     -645321.28    
    213000   213000         0.3101723      0.30986274     348.2513       252.21007      96.041235      95.945384      297.60013     -253.24179     -575549.78     -572691.11      72758.19      -645449.3     
    214000   214000         0.31099854     0.29616591     351.54708      250.7909       100.75618      95.950762      298.98125     -701.17974     -580281.8      -572366.66      73095.85      -645462.51    
    215000   215000         0.31039506     0.31363419     348.91893      253.96111      94.957817      95.94875       299.40526      58.76962      -571800.39     -572463.8       73199.514     -645663.31    
    216000   216000         0.31024157     0.31025836     349.48305      253.54123      95.941823      95.947015      298.93462     -11.208533     -572454.29     -572327.76      73084.45      -645412.21    
    217000   217000         0.30990296     0.30628166     345.94418      248.86013      97.084049      95.949598      297.34792      53.079741     -572103.56     -572702.74      72696.529     -645399.27    
    218000   218000         0.31020009     0.3126158      344.17429      248.97463      95.19966       95.941035      297.63831     -10.07078      -572876.18     -572762.5       72767.524     -645530.02    
    219000   219000         0.31039896     0.3009528      349.4909       250.5267       98.964204      95.952493      298.83164     -97.867004     -573679.43     -572574.67      73059.273     -645633.94    
    220000   220000         0.31037299     0.31277274     347.57935      252.36417      95.215182      95.951369      299.24841      25.642102     -572226.12     -572515.58      73161.166     -645676.74    
    221000   221000         0.31039585     0.30327622     347.76006      249.54537      98.214688      95.961915      297.96476      88.299007     -571739.67     -572736.42      72847.335     -645583.75    
    222000   222000         0.31083844     0.30941578     345.37602      248.96823      96.407786      95.966544      296.80268      74.493733     -571789.73     -572630.64      72563.228     -645193.87    
    223000   223000         0.31045713     0.34272041     340.41729      253.47247      86.944823      95.980289      296.84275     -335.80669     -576777.8      -572987.1       72573.024     -645560.13    
    224000   224000         0.31006973     0.32309017     341.00527      248.90848      92.096786      95.964111      298.43498      256.40174     -570120.73     -573015.07      72962.297     -645977.37    
    225000   225000         0.31048757     0.31790824     343.25409      249.52933      93.724756      95.964783      295.96957      474.18262     -567657.96     -573010.69      72359.546     -645370.23    
    226000   226000         0.31042813     0.35882724     339.62324      256.61181      83.01143       95.953811      296.47133     -117.64585     -574404.37     -573076.35      72482.217     -645558.57    
    227000   227000         0.3105614      0.29698265     353.15806      252.81758      100.34048      95.953268      298.08155      25.191324     -572687.11     -572971.48      72875.89      -645847.37    
    228000   228000         0.3107288      0.33441987     349.31738      260.16831      89.149075      95.946118      298.23683      92.484231     -571937.93     -572981.92      72913.852     -645895.77    
    229000   229000         0.31082974     0.30113552     352.17018      253.13925      99.030928      95.942331      297.28672     -240.85919     -575914.58     -573195.68      72681.566     -645877.25    
    230000   230000         0.31081626     0.31946421     344.03672      250.67763      93.359087      95.956649      298.21596     -213.94736     -575365.71     -572950.6       72908.751     -645859.35    
    231000   231000         0.31096623     0.31371568     345.16439      250.04755      95.116843      95.95783       297.06794     -281.09109     -576017.96     -572844.91      72628.08      -645472.99    
    232000   232000         0.31150734     0.30259922     349.74434      250.96192      98.782412      95.957548      296.9927      -233.82669     -575450.15     -572810.64      72609.685     -645420.33    
    233000   233000         0.31107896     0.31195656     348.82347      253.12574      95.697735      95.967713      297.09101     -541.22903     -578997.66     -572888.09      72633.718     -645521.81    
    234000   234000         0.31099453     0.29072501     352.15611      249.48819      102.66792      95.97639       298.39049     -240.917       -575497.34     -572777.8       72951.419     -645729.22    
    235000   235000         0.31129149     0.29419951     352.93474      251.36867      101.56607      95.989417      298.42381     -397.62736     -576960.34     -572471.8       72959.566     -645431.36    
    236000   236000         0.31095792     0.30340306     347.56465      249.17004      98.394611      96.00407       298.11611      20.633626     -572554.31     -572787.23      72884.34      -645671.57    
    237000   237000         0.31119779     0.29480862     350.11537      248.77621      101.33917      96.00216       297.37972     -234.74675     -575659.57     -573009.68      72704.304     -645713.98    
    238000   238000         0.3106889      0.330229       346.13383      255.80955      90.324285      96.005033      297.06219     -90.58157      -573896.25     -572873.74      72626.674     -645500.41    
    239000   239000         0.31089782     0.29426447     351.4573       250.02525      101.43205      96.005326      297.94377     -263.559       -575767.87     -572792.73      72842.205     -645634.94    
    240000   240000         0.31063145     0.32030061     349.47923      256.36709      93.112139      96.010481      297.78463     -385.6421      -577280.66     -572927.41      72803.297     -645730.7     
    241000   241000         0.31065628     0.30039621     352.58228      253.29886      99.283417      96.004375      297.51978      39.850741     -572345.57     -572795.41      72738.547     -645533.96    
    242000   242000         0.31077546     0.31099417     348.42961      252.49404      95.935574      96.00309       296.83738      71.463427     -571999.09     -572805.79      72571.71      -645377.5     
    243000   243000         0.31058169     0.31242159     348.84275      253.39588      95.446869      96.012302      297.23785      185.42877     -570927.04     -573020.22      72669.619     -645689.84    
    244000   244000         0.31028376     0.29254771     350.85266      249.01893      101.83373      96.012841      296.36268      213.56189     -570669.04     -573079.8       72455.654     -645535.45    
    245000   245000         0.30980952     0.30815273     343.78325      247.26509      96.518165      96.002008      296.063        96.623457     -571924.26     -573014.98      72382.388     -645397.37    
    246000   246000         0.31020832     0.31885696     350.11671      256.72922      93.387489      95.991143      297.80163     -9.5431346     -573105.6      -572997.87      72807.455     -645805.33    
    247000   247000         0.3103573      0.30255527     349.08908      250.6175       98.471584      95.996122      297.38088      214.32045     -570747.78     -573167.1       72704.588     -645871.69    
    248000   248000         0.31071333     0.3006578      346.25236      247.05226      99.200099      95.989714      295.92783     -349.81401     -577226.05     -573277.24      72349.341     -645626.58    
    249000   249000         0.31004337     0.32623069     348.41984      257.1881       91.231746      95.994944      297.01991      292.44877     -569775.95     -573077.21      72616.337     -645693.55    
    250000   250000         0.31017561     0.29962704     347.82393      248.45739      99.366544      95.98725       297.34337      132.86344     -571693.68     -573193.49      72695.417     -645888.9     
    251000   251000         0.31029601     0.31440515     344.22597      249.49415      94.731812      95.986314      296.84106     -230.75994     -575647.81     -573042.92      72572.611     -645615.53    
    252000   252000         0.31061364     0.30236548     349.6144       251.01524      98.59916       95.980918      297.52932     -87.711378     -573935.55     -572945.44      72740.879     -645686.32    
    253000   253000         0.31059184     0.29704726     351.94589      251.58528      100.3606       95.983983      297.05182      61.658905     -572165.51     -572861.54      72624.137     -645485.67    
    254000   254000         0.31059548     0.3284164      343.0756       252.30327      90.772332      95.980544      297.86667     -234.45668     -575136.79     -572490.17      72823.356     -645313.52    
    255000   255000         0.31063816     0.3180377      348.30394      254.5574       93.746546      95.979631      298.25753     -203.73379     -574883.96     -572584.15      72918.914     -645503.07    
    256000   256000         0.31020859     0.31139507     347.56609      251.95202      95.61407       95.979774      297.91992     -130.49306     -574163        -572689.95      72836.374     -645526.33    
    257000   257000         0.3101523      0.30535754     347.93979      250.45925      97.480549      95.973562      298.14803      157.0401      -570780.64     -572553.36      72892.142     -645445.5     
    258000   258000         0.31040068     0.31543991     341.72408      247.28442      94.439658      95.972847      297.67703     -125.9683      -574227.96     -572805.99      72776.99      -645582.98    
    259000   259000         0.31038209     0.30911126     344.95438      248.59378      96.360593      95.966053      296.86355     -0.98065522    -573006.71     -572995.64      72578.11      -645573.75    
    260000   260000         0.3103724      0.31668774     346.72064      252.66994      94.050699      95.964405      297.991        412.63893     -568047.72     -572705.72      72853.753     -645559.47    
    261000   261000         0.31099627     0.29773978     349.06187      248.82471      100.23716      95.964459      298.09795     -93.079258     -573940.78     -572890.07      72879.9       -645769.97    
    262000   262000         0.3105216      0.32309383     347.28208      255.05094      92.231134      95.965339      298.60124     -161.21554     -574575.62     -572755.77      73002.945     -645758.72    
    263000   263000         0.31067013     0.29497855     351.23717      250.17864      101.05854      95.954191      298.52284     -227.3802      -575233.66     -572666.93      72983.777     -645650.7     
    264000   264000         0.31056846     0.29728425     353.71639      253.46591      100.25048      95.962381      297.83372      41.191435     -572132.37     -572597.35      72815.299     -645412.65    
    265000   265000         0.31034878     0.3344741      342.46549      253.42619      89.039302      95.960875      297.91009      82.991949     -571981.41     -572918.25      72833.97      -645752.22    
    266000   266000         0.31033818     0.32953549     343.00041      252.62662      90.373786      95.964245      296.83895      192.74284     -570599.37     -572775.11      72572.095     -645347.2     
    267000   267000         0.31046841     0.32628801     345.95043      254.64761      91.302817      95.955057      297.84887     -371.478       -576938.48     -572745.11      72819.003     -645564.12    
    268000   268000         0.3107903      0.32159221     344.75021      252.01735      92.73286       95.955907      298.17951     -364.93193     -577174.27     -573054.8       72899.84      -645954.64    
    269000   269000         0.31067447     0.31674041     351.17698      257.04548      94.131498      95.969424      298.17181     -191.43981     -575405.76     -573244.73      72897.956     -646142.69    
    270000   270000         0.31055252     0.31396008     344.76154      249.82925      94.932295      95.973946      297.08898     -86.508319     -574260.96     -573284.43      72633.223     -645917.65    
    271000   271000         0.31054797     0.29657071     348.54917      248.04302      100.50614      95.982525      298.52088      186.92606     -570999.77     -573109.85      72983.297     -646093.14    
    272000   272000         0.31065933     0.31443738     353.78101      258.95391      94.827103      95.980333      297.93907     -215.33922     -575247.57     -572816.75      72841.055     -645657.81    
    273000   273000         0.31080691     0.29053242     352.56344      249.88386      102.67958      95.981609      296.92946     -169.86756     -574679.78     -572762.26      72594.223     -645356.48    
    274000   274000         0.31020663     0.32443897     347.70973      255.92941      91.780314      95.991212      298.43064     -103.4228      -574254.12     -573086.65      72961.235     -646047.89    
    275000   275000         0.31051837     0.30501295     350.65314      252.92873      97.724412      95.991778      298.45802     -41.221112     -573424.41     -572959.1       72967.93      -645927.03    
    276000   276000         0.31037905     0.34274535     339.56703      252.65116      86.915869      95.979449      297.68456     -167.50478     -574586.61     -572695.77      72778.833     -645474.6     
    277000   277000         0.31068636     0.29973912     351.34704      251.87066      99.476378      95.97126       297.95075      233.0504      -569978.43     -572609.18      72843.911     -645453.09    
    278000   278000         0.31046735     0.30263746     351.48087      253.02653      98.454341      95.971351      297.87564      101.74194     -571490.69     -572639.19      72825.547     -645464.74    
    279000   279000         0.31085581     0.29811034     352.43404      252.34736      100.08668      95.983006      297.86296      87.343115     -571440.09     -572426.05      72822.448     -645248.5     
    280000   280000         0.31103073     0.28538348     356.97393      252.36088      104.61305      95.986774      298.12642     -234.53643     -575289.39     -572641.87      72886.86      -645528.73    
    281000   281000         0.31087632     0.30901991     345.97579      249.41604      96.55975       95.983139      297.39085     -222.52826     -575325.49     -572813.52      72707.025     -645520.54    
    282000   282000         0.31105606     0.31747673     349.06806      255.02688      94.041182      95.982335      299.67983      26.004516     -572186.89     -572480.44      73266.643     -645747.08    
    283000   283000         0.31066585     0.29798303     352.7644       252.69333      100.07107      95.985706      298.84526      44.380064     -572146.73     -572647.71      73062.603     -645710.31    
    284000   284000         0.31108868     0.26829582     355.51731      244.22451      111.2928       95.98354       298.35463     -261.54812     -575706.61     -572754.17      72942.652     -645696.82    
    285000   285000         0.31121321     0.30567653     349.24992      251.52917      97.720755      95.982241      297.9413       65.328409     -571906.53     -572643.98      72841.601     -645485.58    
    286000   286000         0.31102359     0.33391267     348.44611      259.04446      89.401647      95.98096       299.49765     -191.59743     -574684.48     -572521.67      73222.101     -645743.77    
    287000   287000         0.31119732     0.30856982     343.49982      246.70618      96.793641      95.976394      297.76059     -125.83568     -574364.87     -572944.4       72797.42      -645741.82    
    288000   288000         0.31157095     0.30735458     350.58764      253.29372      97.293924      95.977284      298.53266      138.75508     -571063.1      -572629.41      72986.178     -645615.59    
    289000   289000         0.31127502     0.30889981     345.71796      248.99544      96.722522      95.984471      298.05052      76.435129     -572174.41     -573037.24      72868.304     -645905.54    
    290000   290000         0.31113301     0.30105613     351.91281      252.70854      99.204264      95.991268      298.09219     -126.70549     -574423.04     -572992.75      72878.491     -645871.24    
    291000   291000         0.31124469     0.3083449      353.10342      256.21216      96.891266      95.988554      299.37268     -36.205996     -573068.07     -572659.37      73191.549     -645850.92    
    292000   292000         0.3111965      0.30720106     350.69397      253.46756      97.226411      95.978124      297.48629      47.935971     -572296.51     -572837.63      72730.358     -645567.99    
    293000   293000         0.31167158     0.31482395     348.13027      253.11743      95.01284       95.973841      297.76803      9.2709777     -572590.51     -572695.16      72799.238     -645494.4     
    294000   294000         0.3114917      0.28630336     352.85468      248.43312      104.42156      95.977655      298.31895      171.4611      -570752.96     -572688.47      72933.93      -645622.4     
    295000   295000         0.31173136     0.31889457     348.72693      254.8987       93.828228      95.984286      298.61484      199.66326     -569913.67     -572167.53      73006.271     -645173.8     
    296000   296000         0.31156964     0.30368542     349.48903      251.01781      98.471218      95.979419      299.77814     -177.76256     -574755.69     -572749.05      73290.676     -646039.73    
    297000   297000         0.3118032      0.29938252     354.02338      254.05781      99.965569      95.983439      298.00202     -70.813997     -573437.22     -572637.85      72856.445     -645494.29    
    298000   298000         0.3117682      0.30032515     347.33741      247.6978       99.63961       95.982465      297.13526     -47.587798     -573383.88     -572846.7       72644.537     -645491.23    
    299000   299000         0.31169323     0.31188224     349.86996      253.94953      95.920433      95.978598      297.52014     -168.37576     -574438.28     -572537.6       72738.633     -645276.23    
    300000   300000         0.31178172     0.29707245     345.46643      244.73382      100.73261      95.980239      297.2395       195.26103     -570436.72     -572640.89      72670.024     -645310.91    
    301000   301000         0.31188008     0.28621248     352.30209      247.71894      104.58315      95.976002      298.67717     -102.00447     -573751.54     -572600.08      73021.509     -645621.59    
    302000   302000         0.31175544     0.32077156     343.47354      250.19257      93.280967      95.978697      298.2331       163.48736     -570792.07     -572637.57      72912.941     -645550.51    
    303000   303000         0.31197131     0.30871238     350.49427      253.50175      96.992521      95.979312      299.29561      46.252036     -572021.31     -572543.42      73172.707     -645716.13    
    304000   304000         0.31189        0.3053255      345.38584      247.34881      98.037036      95.973602      297.03441     -128.76908     -574234.77     -572781.18      72619.881     -645401.06    
    305000   305000         0.31197229     0.33031541     343.7501       253.0993       90.650794      95.980815      298.16025     -156.47172     -574157.62     -572391.32      72895.13      -645286.45    
    306000   306000         0.31201774     0.32049586     346.89434      253.45045      93.443891      95.982939      299.35061      127.48016     -570953.22     -572392.26      73186.153     -645578.41    
    307000   307000         0.31204513     0.29087726     352.29635      249.32196      102.97439      95.989029      297.34631     -269.89338     -575580.97     -572534.33      72696.135     -645230.46    
    308000   308000         0.3120678      0.3232113      345.61495      252.93509      92.679868      95.989333      299.62014     -146.16085     -574190.94     -572541.03      73252.048     -645793.08    
    309000   309000         0.31186452     0.32657578     342.74267      251.0796       91.663074      95.987001      297.14711      200.74331     -570572.75     -572838.81      72647.435     -645486.24    
    310000   310000         0.31176695     0.32478766     348.27591      256.13311      92.142793      95.991066      297.95864     -249.16718     -575608.74     -572796.06      72845.84      -645641.9     
    311000   311000         0.31168527     0.28984412     354.92705      251.70991      103.21714      95.984266      298.57448     -528.48806     -578734.4      -572768.66      72996.403     -645765.06    
    312000   312000         0.31147895     0.33086538     341.73431      251.37519      90.359119      95.983067      296.70444      239.70178     -570690.24     -573396.07      72539.21      -645935.28    
    313000   313000         0.31185641     0.28746613     349.1101       244.98108      104.12902      95.985091      297.14548     -630.84406     -579943.17     -572822.01      72647.036     -645469.04    
    314000   314000         0.3117231      0.33050398     343.20294      252.67376      90.529176      95.983432      297.2465       99.579421     -571836.66     -572960.74      72671.734     -645632.48    
    315000   315000         0.3120364      0.29585986     352.56328      251.32934      101.23394      95.985781      297.79153     -164.62094     -574816.35     -572958.06      72804.985     -645763.04    
    316000   316000         0.31214402     0.3079297      350.67177      253.37355      97.298228      95.984583      298.02675     -23.028609     -573127.4      -572867.45      72862.491     -645729.94    
    317000   317000         0.3120878      0.31400449     349.80543      254.41502      95.390404      95.976244      298.33145      329.90278     -568804.52     -572528.57      72936.987     -645465.55    
    318000   318000         0.31201622     0.31510809     346.07448      251.04566      95.028824      95.970495      298.30088      140.11139     -570946.08     -572527.7       72929.511     -645457.21    
    319000   319000         0.31231557     0.29992801     350.61284      250.67834      99.9345        95.970738      298.78073     -8.5591942     -572933.55     -572836.93      73046.828     -645883.76    
    320000   320000         0.31199276     0.34523823     340.38568      253.6551       86.730574      95.972451      297.74555     -72.880469     -573682.48     -572859.79      72793.743     -645653.53    
    321000   321000         0.3121403      0.30435045     352.5941       254.16354      98.430553      95.974095      298.6082       30.106803     -572637.43     -572977.28      73004.647     -645981.93    
[...]
    932000   932000         0.31718177     0.35947213     342.95893      258.3367       84.622231      95.90505       297.90706      241.79932     -570283.92     -573013.43      72833.231     -645846.66    
    933000   933000         0.31714269     0.26109121     363.34501      246.85129      116.49372      95.904736      297.48098      100.39529     -571920.24     -573053.53      72729.059     -645782.59    
    934000   934000         0.31719788     0.31008178     352.74789      254.63808      98.109811      95.908791      297.47648     -229.26211     -575683.99     -573096.01      72727.959     -645823.97    
    935000   935000         0.31721012     0.30920584     348.07119      249.67884      98.392354      95.909585      297.19056      147.79494     -571393.13     -573061.49      72658.058     -645719.54    
    936000   936000         0.31714584     0.31351627     352.29613      255.27671      97.019416      95.90908       298.30877      78.728225     -572015.81     -572904.52      72931.44      -645835.96    
    937000   937000         0.31714997     0.32187395     342.75571      248.25638      94.499336      95.906911      297.82155      371.64724     -568683.52     -572878.79      72812.325     -645691.12    
    938000   938000         0.31709794     0.36423393     340.43535      256.9379       83.497454      95.909186      296.1729      -137.89524     -574723.11     -573166.5       72409.257     -645575.76    
    939000   939000         0.31714428     0.30798131     351.24983      252.48955      98.760274      95.906878      298.11758     -201.75423     -575212.79     -572935.32      72884.697     -645820.02    
    940000   940000         0.31706375     0.31033989     348.27972      250.29607      97.983646      95.905743      296.98509     -44.363445     -573853.69     -573352.9       72607.824     -645960.73    
    941000   941000         0.31723056     0.31879553     348.18107      252.74783      95.433244      95.904039      297.39585     -476.79636     -578645.74     -573263.52      72708.248     -645971.76    
    942000   942000         0.31724605     0.30270934     349.11709      248.60613      100.51095      95.905385      297.35688      264.75839     -570225.45     -573214.12      72698.719     -645912.84    
    943000   943000         0.31724724     0.29536664     349.79408      246.78188      103.0122       95.907426      297.01849     -68.849353     -573963.34     -573186.14      72615.988     -645802.13    
    944000   944000         0.31723248     0.31021507     348.92481      250.84717      98.077636      95.908086      296.71586     -310.34625     -576709.42     -573206.13      72542.001     -645748.13    
    945000   945000         0.31723534     0.29470203     356.68233      253.44015      103.24218      95.908862      298.36558      429.27583     -568312.45     -573158.26      72945.329     -646103.59    
    946000   946000         0.3171587      0.30828531     343.67156      245.00329      98.668272      95.907755      297.52151     -231.18013     -575582.6      -572972.97      72738.97      -645711.94    
    947000   947000         0.3172021      0.29393652     354.1438       250.64369      103.50011      95.908769      299.48298     -42.184318     -573112.32     -572636.13      73218.516     -645854.65    
    948000   948000         0.31713845     0.30935332     348.21648      249.89458      98.321901      95.908287      297.86506      217.57896     -570389.52     -572845.62      72822.962     -645668.58    
    949000   949000         0.31705596     0.33170518     346.56977      254.89542      91.674354      95.910067      298.62632      91.730802     -571952.18     -572987.67      73009.077     -645996.75    
    950000   950000         0.31707483     0.31036955     348.94306      250.96223      97.980824      95.908794      297.1258      -437.7409      -577981.94     -573040.58      72642.224     -645682.81    
    951000   951000         0.31710233     0.31709008     352.67823      256.76478      95.913451      95.909745      297.8797       268.49888     -569808.73     -572839.63      72826.54      -645666.17    
    952000   952000         0.31708239     0.31622387     349.05177      252.88138      96.170389      95.910002      298.20696      214.19066     -570712.1      -573129.95      72906.549     -646036.5     
    953000   953000         0.31707571     0.34391776     344.66991      256.24903      88.420886      95.906156      298.09019     -290.39421     -576485.6      -573207.54      72878.002     -646085.54    
    954000   954000         0.31715227     0.31166328     346.80443      249.21114      97.593291      95.904232      297.15457     -241.38622     -575798.85     -573074.01      72649.258     -645723.27    
    955000   955000         0.3170458      0.34267324     344.99197      256.26235      88.729621      95.901811      297.33354     -4.3536047     -573141.84     -573092.69      72693.013     -645785.71    
    956000   956000         0.31701759     0.38895326     337.1802       259.01474      78.165469      95.902293      297.02173      209.3187      -570714.63     -573077.49      72616.781     -645694.27    
    957000   957000         0.31709773     0.29680168     352.92732      250.46396      102.46336      95.905127      298.45132     -319.90064     -576619.91     -573008.77      72966.291     -645975.06    
    958000   958000         0.31705758     0.30336181     348.2424       248.00678      100.23562      95.905798      297.84774      33.536333     -572655.9      -573034.47      72818.727     -645853.19    
    959000   959000         0.31696381     0.32894567     347.45585      255.04386      92.411992      95.905347      296.58653     -271.85944     -576390.3      -573321.46      72510.383     -645831.85    
    960000   960000         0.31695562     0.31510726     349.96982      253.50242      96.467398      95.904838      297.40863     -230.34897     -575806.86     -573206.61      72711.371     -645917.98    
    961000   961000         0.3169452      0.33292223     342.66202      251.36075      91.301263      95.903707      297.72906     -139.30439     -574839.53     -573267.02      72789.711     -646056.73    
    962000   962000         0.31705457     0.30309952     353.71899      253.39726      100.32173      95.9061        297.67258     -141.9357      -574627.85     -573025.64      72775.902     -645801.54    
    963000   963000         0.3169665      0.31653742     349.04531      253.00646      96.038855      95.908847      296.32073     -130.84743     -574833.03     -573355.98      72445.398     -645801.38    
    964000   964000         0.31698389     0.33682075     343.93015      253.67091      90.259242      95.907668      297.72423      75.931138     -572338.01     -573195.14      72788.531     -645983.67    
    965000   965000         0.31715347     0.30043552     352.68136      251.43688      101.24448      95.907632      298.55668      405.62621     -568409.07     -572987.9       72992.051     -645979.96    
    966000   966000         0.31709957     0.33301866     345.52938      254.20704      91.322344      95.906924      297.32737      42.29232      -572442.05     -572919.46      72691.504     -645610.97    
    967000   967000         0.3171038      0.3227209      349.97945      255.74202      94.237428      95.906729      298.24155     -790.21497     -581915.19     -572995         72915.006     -645910       
    968000   968000         0.31710145     0.28501387     354.72919      248.02681      106.70238      95.905137      297.19686      69.639224     -572160.15     -572946.26      72659.597     -645605.85    
    969000   969000         0.31706727     0.29077177     352.66032      248.08154      104.57878      95.905694      298.0965      -182.94977     -575044.93     -572979.74      72879.545     -645859.28    
    970000   970000         0.31706965     0.339645       341.97843      252.44728      89.531151      95.905767      297.77112      40.946941     -572613.06     -573075.28      72799.995     -645875.27    
    971000   971000         0.31712028     0.31068523     350.70939      252.81884      97.89056       95.904151      297.67536     -577.34779     -579662.29     -573145.01      72776.583     -645921.59    
    972000   972000         0.31715714     0.33628307     346.00654      255.55407      90.452462      95.907132      298.10144      185.67404     -570776.89     -572872.83      72880.752     -645753.59    
    973000   973000         0.31706348     0.31438719     349.10708      252.3835       96.723583      95.907152      297.41524     -166.38485     -574932.39     -573054.19      72712.988     -645767.18    
    974000   974000         0.31711876     0.3063221      348.32603      249.03873      99.287305      95.90696       297.49215     -356.07286     -576730.38     -572710.91      72731.791     -645442.7     
    975000   975000         0.31700877     0.34907548     342.56224      255.46735      87.094888      95.904887      297.81446     -310.95947     -576585.92     -573075.71      72810.589     -645886.3     
    976000   976000         0.31714486     0.28263085     356.84332      249.2243       107.61902      95.907133      298.62821     -199.73197     -575164.38     -572909.74      73009.54      -645919.28    
    977000   977000         0.31704064     0.32820789     345.16902      252.52308      92.645948      95.909253      298.04933     -9.2057517     -573099.93     -572996.02      72868.012     -645864.03    
    978000   978000         0.31708776     0.32033699     350.4455       255.51094      94.93456       95.907366      298.63364      40.469408     -572324.21     -572781.04      73010.866     -645791.91    
    979000   979000         0.31716251     0.29903268     351.99983      250.27396      101.72587      95.910958      298.76267      272.46776     -569832.26     -572907.96      73042.413     -645950.37    
    980000   980000         0.31709273     0.34191213     340.05634      251.10629      88.950054      95.91233       296.48282     -66.83338      -573728.25     -572973.81      72485.026     -645458.84    
    981000   981000         0.31712565     0.30846751     352.92964      254.32413      98.605515      95.913396      298.81773     -469.22835     -578166.16     -572869.37      73055.874     -645925.24    
    982000   982000         0.31695238     0.31620049     349.35702      253.21352      96.143501      95.915424      297.86605      264.91366     -570244.78     -573235.21      72823.203     -646058.41    
    983000   983000         0.31695897     0.32283923     353.42799      259.25923      94.168758      95.915786      299.12964      51.885547     -572152.03     -572737.73      73132.129     -645869.85    
    984000   984000         0.31701002     0.30712073     350.54632      251.54486      99.001464      95.913062      297.07881      61.63521      -572668.78     -573364.53      72630.736     -645995.27    
    985000   985000         0.31701043     0.2996486      350.59692      249.12504      101.47188      95.914528      297.62672     -213.01893     -575344.14     -572939.51      72764.69      -645704.2     
    986000   986000         0.31705567     0.32057069     347.24398      252.38326      94.86072       95.912388      297.67916      113.81438     -571701.96     -572986.73      72777.513     -645764.24    
    987000   987000         0.31692849     0.32173734     347.88377      253.40411      94.479668      95.913234      298.95072     -129.4944      -574305.66     -572843.89      73088.388     -645932.28    
    988000   988000         0.31695117     0.29720485     346.63079      244.34411      102.28669      95.914141      297.73131     -76.640692     -573967.36     -573102.22      72790.261     -645892.48    
    989000   989000         0.31692382     0.30662184     348.25703      249.12154      99.13549       95.912973      297.96589      247.57081     -570099.54     -572894.19      72847.612     -645741.81    
    990000   990000         0.31685739     0.34486075     341.51708      253.39204      88.125049      95.913403      297.219        186.6237      -570888.46     -572995.13      72665.009     -645660.14    
    991000   991000         0.31684681     0.29848584     354.30834      252.49496      101.81338      95.913392      298.10163     -103.10898     -573672.21     -572508.28      72880.798     -645389.08    
    992000   992000         0.31676358     0.32538175     345.87502      252.504        93.371021      95.911363      297.60823     -65.549569     -573570.94     -572830.99      72760.171     -645591.16    
    993000   993000         0.31681834     0.30876949     352.3544       253.9447       98.409696      95.909573      297.78686     -147.256       -574366.83     -572704.56      72803.842     -645508.4     
    994000   994000         0.31676343     0.31046146     351.65964      253.80231      97.857336      95.910477      298.16481     -42.218303     -573319.86     -572843.29      72896.244     -645739.53    
    995000   995000         0.31676809     0.34145608     341.40948      252.43427      88.975203      95.909672      297.45409      220.91522     -570529.52     -573023.28      72722.485     -645745.77    
    996000   996000         0.31690871     0.31575916     345.82238      249.56347      96.258906      95.909738      297.75566     -255.3456      -575618.64     -572736.22      72796.216     -645532.43    
    997000   997000         0.31686428     0.31199354     349.31223      251.90262      97.409607      95.912257      299.18046      140.56092     -571090.41     -572677.11      73144.553     -645821.66    
    998000   998000         0.31680643     0.28695402     354.99506      249.10579      105.88927      95.911408      298.29503     -333.73676     -576914.13     -573146.8       72928.08      -646074.88    
    999000   999000         0.31675621     0.31006528     352.49151      254.51126      97.980256      95.91059       297.98449     -90.846675     -574032.37     -573006.86      72852.16      -645859.02    
   1000000   1000000        0.31690251     0.34444103     340.94537      252.70594      88.239429      95.90735       297.51733      99.523732     -571640.97     -572764.43      72737.948     -645502.38    
   1001000   1001000        0.31693879     0.34665466     342.09629      254.40916      87.687127      95.908584      298.29783     -138.9861      -574071.08     -572502.17      72928.766     -645430.93    
   1002000   1002000        0.31691096     0.31196582     346.15741      248.72897      97.428439      95.908147      299.14483     -131.39562     -574406.38     -572923.15      73135.843     -646058.99    
   1003000   1003000        0.3168451      0.29137067     354.27374      249.97875      104.29499      95.909642      299.11984     -10.837699     -572609.68     -572487.34      73129.733     -645617.07    
   1004000   1004000        0.31698771     0.31485462     347.49573      250.93634      96.55939       95.909617      298.05185      477.10274     -567240.97     -572626.66      72868.629     -645495.29    
   1005000   1005000        0.31691518     0.30615302     351.04262      251.76139      99.281233      95.909727      299.07938     -43.558183     -572985.93     -572494.23      73119.842     -645614.07    
   1006000   1006000        0.31696378     0.30791883     351.56845      252.84031      98.728133      95.910806      299.54825      119.01253     -571060.45     -572403.9       73234.473     -645638.37    
   1007000   1007000        0.31682474     0.34469236     340.2097       252.05299      88.156704      95.910889      298.2082       96.039364     -571482.39     -572566.52      72906.854     -645473.37    
   1008000   1008000        0.31699277     0.30971769     351.29196      253.12952      98.162438      95.909579      299.41675     -43.073908     -572811.48     -572325.25      73202.323     -645527.57    
   1009000   1009000        0.31700968     0.3075581      350.15028      251.29348      98.856802      95.909406      299.71597     -553.05257     -578489.37     -572246.33      73275.478     -645521.81    
   1010000   1010000        0.31697493     0.35208029     340.70052      254.35274      86.347776      95.910895      298.80855      9.2933076     -572466.75     -572571.65      73053.628     -645625.28    
   1011000   1011000        0.31685149     0.35877373     340.47508      255.76997      84.705113      95.912344      299.02969     -384.87614     -577081.82     -572737.21      73107.694     -645844.91    
   1012000   1012000        0.31716275     0.26438946     361.65295      246.59558      115.05737      95.912762      300.09469     -152.75482     -574030.31     -572305.97      73368.068     -645674.03    
   1013000   1013000        0.31699751     0.33338465     342.53354      251.33366      91.199879      95.914443      298.92109     -65.607609     -573218.57     -572477.97      73081.144     -645559.12    
   1014000   1014000        0.31700294     0.29508417     351.03964      248.0028       103.03683      95.912482      298.70521     -247.67923     -575483.85     -572687.97      73028.362     -645716.33    
   1015000   1015000        0.31707387     0.31982023     349.23105      254.14316      95.087894      95.911503      298.64291     -52.748937     -573196.8      -572601.35      73013.132     -645614.48    
   1016000   1016000        0.31705566     0.31724463     353.38678      257.53453      95.852258      95.909385      299.8474       357.40785     -568429.17     -572463.71      73307.61      -645771.32    
   1017000   1017000        0.31705256     0.31662696     349.47271      253.43453      96.038181      95.909262      299.29851      107.08523     -571056.21     -572265.02      73173.416     -645438.44    
   1018000   1018000        0.31710897     0.3146102      350.25254      253.58123      96.67131       95.909553      299.75244      129.35689     -570919.89     -572380.11      73284.395     -645664.5     
   1019000   1019000        0.31714153     0.30877213     350.73554      252.22701      98.508532      95.908882      298.8629      -44.992397     -572980.25     -572472.36      73066.916     -645539.28    
   1020000   1020000        0.31711188     0.2971991      349.25777      246.92108      102.33669      95.910541      298.41875     -183.49705     -574583.33     -572511.95      72958.33      -645470.28    
   1021000   1021000        0.31712162     0.32934113     342.12074      249.76926      92.35148       95.910021      298.00379      78.697454     -571588.91     -572477.27      72856.878     -645334.15    
Loop time of 55887.1 on 32 procs for 1000000 steps with 82020 atoms

Performance: 1.546 ns/day, 15.524 hours/ns, 17.893 timesteps/s, 1.468 Matom-step/s
99.5% CPU use with 32 MPI tasks x 1 OpenMP threads

MPI task timing breakdown:
Section |  min time  |  avg time  |  max time  |%varavg| %total
---------------------------------------------------------------
Pair    | 24615      | 29283      | 34485      |1480.4 | 52.40
Bond    | 631.59     | 721.86     | 824.77     | 195.5 |  1.29
Kspace  | 14606      | 19687      | 24201      |1761.8 | 35.23
Neigh   | 2919.8     | 2955       | 2975.1     |  24.5 |  5.29
Comm    | 1352.8     | 1689.4     | 2120.4     | 523.9 |  3.02
Output  | 0.26753    | 0.27935    | 0.48003    |   6.8 |  0.00
Modify  | 922.29     | 1428.4     | 1762.3     | 710.9 |  2.56
Other   |            | 122.1      |            |       |  0.22

Nlocal:        2563.12 ave        2737 max        2440 min
Histogram: 4 5 5 3 6 1 1 2 3 2
Nghost:        17323.6 ave       18168 max       16838 min
Histogram: 11 4 5 0 1 3 0 1 3 4
Neighs:    1.56176e+06 ave 1.79298e+06 max  1.4206e+06 min
Histogram: 2 7 8 2 5 2 2 0 0 4

Total # of neighbors = 49976421
Ave neighs/atom = 609.31993
Ave special neighs/atom = 10.922214
Neighbor list builds = 52374
Dangerous builds = 0
Total wall time: 15:52:32
