units real
atom_style full
boundary p p p

# styles
pair_style lj/charmm/coul/long 8.0 12.0
kspace_style pppm 1e-6
dielectric 1.000000
bond_style harmonic
angle_style harmonic
dihedral_style fourier
improper_style cvff
special_bonds amber
pair_modify mix arithmetic
neighbor 2.0 bin
neigh_modify delay 0 every 1 check yes

# system definition
read_data ../final.data
Reading data file ...
  orthogonal box = (-25.800016 -24.079824 -155.73635) to (25.800016 24.079824 155.73635)
  2 by 2 by 8 MPI processor grid
  reading atoms ...
  82020 atoms
  reading velocities ...
  82020 velocities
  scanning bonds ...
  4 = max bonds/atom
  scanning angles ...
  6 = max angles/atom
  scanning dihedrals ...
  15 = max dihedrals/atom
  scanning impropers ...
  1 = max impropers/atom
  reading bonds ...
  84010 bonds
  reading angles ...
  150000 angles
  reading dihedrals ...
  219910 dihedrals
  reading impropers ...
  6000 impropers
Finding 1-2 1-3 1-4 neighbors ...
  special bond factors lj:    0        0        0.5     
  special bond factors coul:  0        0        0.8333333333333334
     4 = max # of 1-2 neighbors
    11 = max # of 1-3 neighbors
    22 = max # of 1-4 neighbors
    26 = max # of special neighbors
  special bonds CPU = 0.071 seconds
  read_data CPU = 1.824 seconds
# do not reset velocities

# vars
variable dt equal 1.0
variable tLog equal 1000
variable nEvery equal 10
variable nRepeat equal 100
variable boolDump equal 0
variable tDump equal 1000

variable tPreeq equal 10000
variable tPrerun equal 10000
variable tDelay equal 1000
variable tTCrun equal 1000000

# desiered temperature difference
variable Tavg equal 300.0
variable TempDiff equal 100.0
variable Thi equal ${Tavg}+(${TempDiff}/2)
variable Thi equal 300+(${TempDiff}/2)
variable Thi equal 300+(100/2)
variable Tlo equal ${Tavg}-(${TempDiff}/2)
variable Tlo equal 300-(${TempDiff}/2)
variable Tlo equal 300-(100/2)

# defining regions
variable hot_lo equal (ly*0)+ylo
variable hot_hi equal (ly*0.05)+ylo
variable cold_lo equal (ly*0.50)+ylo
variable cold_hi equal (ly*0.55)+ylo

# define heating and cooling block regions
region hot block INF INF ${hot_lo} ${hot_hi} INF INF units box
region hot block INF INF -24.0798239715051 ${hot_hi} INF INF units box
region hot block INF INF -24.0798239715051 -21.6718415743546 INF INF units box
region cold block INF INF ${cold_lo} ${cold_hi} INF INF units box
region cold block INF INF 0 ${cold_hi} INF INF units box
region cold block INF INF 0 2.40798239715051 INF INF units box
compute Thot all temp/region hot
compute Tcold all temp/region cold

# STEP 1 - 1st equilibration (nve)
# 1a - thermo output for md1
thermo_style custom step time temp c_Thot c_Tcold press enthalpy etotal ke pe
thermo_modify colname c_Thot Temp_hot colname c_Tcold Temp_cold
thermo_modify flush yes
thermo ${tLog}
thermo 1000

# 1b - nve equilibration
timestep ${dt}
timestep 1
fix md1 all nve
run ${tPreeq}
run 10000
PPPM initialization ...
  using 12-bit tables for long-range coulomb (src/kspace.cpp:342)
  G vector (1/distance) = 0.27316341
  grid = 60 60 225
  stencil order = 5
  estimated absolute RMS force accuracy = 0.00037618852
  estimated relative force accuracy = 1.1328806e-06
  using double precision FFTW3
  3d grid and FFT values/proc = 47915 28800
Generated 120 of 120 mixed pair_coeff terms from arithmetic mixing rule
Neighbor list info ...
  update: every = 1 steps, delay = 0 steps, check = yes
  max neighbors/atom: 2000, page size: 100000
  master list distance cutoff = 14
  ghost atom cutoff = 14
  binsize = 7, bins = 8 7 45
  1 neighbor lists, perpetual/occasional/extra = 1 0 0
  (1) pair lj/charmm/coul/long, perpetual
      attributes: half, newton on
      pair build: half/bin/newton
      stencil: half/bin/3d
      bin: standard
Per MPI rank memory allocation (min/avg/max) = 39.81 | 40.44 | 41.45 Mbytes
   Step          Time           Temp         Temp_hot      Temp_cold        Press         Enthalpy        TotEng         KinEng         PotEng    
         0   0              300.41615      300.55937      299.18298      42.831017     -571123.67     -571607.16      73446.659     -645053.82    
      1000   1000           299.49981      301.00397      296.60603      1.2905042     -571587.4      -571601.97      73222.629     -644824.6     
      2000   2000           300.56516      306.65514      307.28696     -464.25997     -576854.99     -571614.28      73483.09      -645097.37    
      3000   3000           300.4289       302.01375      296.8815      -11.421934     -571729.31     -571600.38      73449.777     -645050.15    
      4000   4000           300.33842      301.3869       302.15805     -42.000571     -572077.46     -571603.35      73427.657     -645031.01    
      5000   5000           300.34401      299.82812      302.53118      15.245438     -571436.74     -571608.83      73429.022     -645037.85    
      6000   6000           299.37306      298.84875      300.23774     -285.02193     -574806.31     -571588.89      73191.642     -644780.54    
      7000   7000           300.51432      298.75844      307.83012      181.1694      -569556.51     -571601.61      73470.661     -645072.27    
      8000   8000           299.59566      297.74865      302.07338      97.488514     -570490.78     -571591.26      73246.063     -644837.32    
      9000   9000           299.65547      299.77204      295.15935      183.10649     -569527.58     -571594.54      73260.686     -644855.23    
     10000   10000          300.62632      299.76992      305.38273     -125.15272     -573017.01     -571604.25      73498.043     -645102.29    
Loop time of 421.972 on 32 procs for 10000 steps with 82020 atoms

Performance: 2.048 ns/day, 11.721 hours/ns, 23.698 timesteps/s, 1.944 Matom-step/s
99.6% CPU use with 32 MPI tasks x 1 OpenMP threads

MPI task timing breakdown:
Section |  min time  |  avg time  |  max time  |%varavg| %total
---------------------------------------------------------------
Pair    | 228.2      | 261.49     | 313.8      | 130.3 | 61.97
Bond    | 5.9998     | 6.4563     | 7.7837     |  17.9 |  1.53
Kspace  | 64.305     | 117.49     | 150.79     | 195.8 | 27.84
Neigh   | 25.719     | 25.804     | 25.878     |   0.8 |  6.12
Comm    | 7.3302     | 8.3965     | 9.4793     |  19.3 |  1.99
Output  | 0.0013871  | 0.0019205  | 0.0052995  |   1.5 |  0.00
Modify  | 0.20148    | 0.25166    | 0.30724    |   6.0 |  0.06
Other   |            | 2.082      |            |       |  0.49

Nlocal:        2563.12 ave        2718 max        2410 min
Histogram: 1 4 4 3 6 4 1 3 4 2
Nghost:        17320.7 ave       18197 max       16810 min
Histogram: 8 6 5 1 2 2 0 0 4 4
Neighs:    1.56168e+06 ave 1.78154e+06 max 1.41866e+06 min
Histogram: 3 3 9 3 5 2 3 0 2 2

Total # of neighbors = 49973640
Ave neighs/atom = 609.28603
Ave special neighs/atom = 10.922214
Neighbor list builds = 518
Dangerous builds = 0
unfix md1

# STEP 2 - pre run
# 2a - impose nve
fix md2 all nve

# 2b - impose thermostating
fix hot all langevin ${Thi} ${Thi} 100.0 57485 tally yes
fix hot all langevin 350 ${Thi} 100.0 57485 tally yes
fix hot all langevin 350 350 100.0 57485 tally yes
fix cold all langevin ${Tlo} ${Tlo} 100.0 12490 tally yes
fix cold all langevin 250 ${Tlo} 100.0 12490 tally yes
fix cold all langevin 250 250 100.0 12490 tally yes
fix_modify hot temp Thot
fix_modify cold temp Tcold
# calculate tdiff of regions
variable tdiff equal c_Thot-c_Tcold

# 2c - thermo output
thermo_style custom step time temp c_Thot c_Tcold f_hot f_cold v_tdiff press enthalpy etotal ke pe
WARNING: New thermo_style command, previous thermo_modify settings will be lost (src/output.cpp:904)
thermo_modify colname c_Thot Temp_hot colname c_Tcold Temp_cold               colname f_hot E_hot colname f_cold E_cold               colname v_tdiff dTemp_step
thermo_modify flush yes
thermo ${tLog}
thermo 1000

# 2d - pre run
run ${tPrerun}
run 10000
PPPM initialization ...
  using 12-bit tables for long-range coulomb (src/kspace.cpp:342)
  G vector (1/distance) = 0.27316341
  grid = 60 60 225
  stencil order = 5
  estimated absolute RMS force accuracy = 0.00037618852
  estimated relative force accuracy = 1.1328806e-06
  using double precision FFTW3
  3d grid and FFT values/proc = 47915 28800
Generated 120 of 120 mixed pair_coeff terms from arithmetic mixing rule
Per MPI rank memory allocation (min/avg/max) = 41.41 | 42.07 | 42.95 Mbytes
   Step          Time           Temp         Temp_hot      Temp_cold        E_hot          E_cold       dTemp_step       Press         Enthalpy        TotEng         KinEng         PotEng    
     10000   10000          300.62632      299.74888      305.38273     -0             -0             -5.6338514     -125.15272     -573017.01     -571604.25      73498.043     -645102.29    
     11000   11000          297.97727      342.10311      254.62482     -2967.8605      3404.0168      87.478291     -600.45953     -578796.12     -572017.94      72850.395     -644868.33    
     12000   12000          298.8117       340.98582      254.42078     -3930.8953      4712.8451      86.565045     -347.71971     -576290.05     -572364.88      73054.399     -645419.28    
     13000   13000          298.89389      347.90949      252.06307     -5067.29        5643.9047      95.846419      104.47287     -570953.39     -572132.72      73074.494     -645207.21    
     14000   14000          299.35173      347.00447      255.87824     -6027.9135      6372.4955      91.12623      -355.84678     -575911.34     -571894.43      73186.428     -645080.86    
     15000   15000          298.82496      341.93552      249.23988     -6763.1453      7002.7921      92.695634     -257.45888     -574682.98     -571776.7       73057.641     -644834.34    
     16000   16000          299.28632      348.59748      254.93832     -7431.8774      7764.6191      93.659163     -299.44604     -575253.63     -571873.39      73170.434     -645043.82    
     17000   17000          300.78445      349.03778      254.26456     -8354.6058      8408.676       94.773221     -150.47447     -573269.12     -571570.52      73536.703     -645107.22    
     18000   18000          300.12272      352.64376      255.01434     -8806.6002      9189.267       97.629421     -111.39595     -573159.71     -571902.24      73374.921     -645277.16    
     19000   19000          299.89687      348.46335      255.60146     -9681.6584      9744.1085      92.861891     -11.556812     -571684.04     -571553.59      73319.705     -644873.29    
     20000   20000          299.29269      349.58769      253.94064     -10128.996      10478.275      95.647045     -23.402856     -572100.33     -571836.15      73171.992     -645008.15    
Loop time of 428.026 on 32 procs for 10000 steps with 82020 atoms

Performance: 2.019 ns/day, 11.890 hours/ns, 23.363 timesteps/s, 1.916 Matom-step/s
99.6% CPU use with 32 MPI tasks x 1 OpenMP threads

MPI task timing breakdown:
Section |  min time  |  avg time  |  max time  |%varavg| %total
---------------------------------------------------------------
Pair    | 229.74     | 261.48     | 315.02     | 132.7 | 61.09
Bond    | 5.9881     | 6.4582     | 7.7841     |  18.0 |  1.51
Kspace  | 64.332     | 118.7      | 150.45     | 198.2 | 27.73
Neigh   | 26.027     | 26.088     | 26.146     |   0.6 |  6.10
Comm    | 7.2784     | 8.375      | 9.5072     |  20.9 |  1.96
Output  | 0.0015425  | 0.0019478  | 0.0049223  |   1.2 |  0.00
Modify  | 5.7353     | 6.1419     | 6.6187     |  10.1 |  1.43
Other   |            | 0.7803     |            |       |  0.18

Nlocal:        2563.12 ave        2726 max        2447 min
Histogram: 5 2 5 6 4 1 2 2 3 2
Nghost:        17324.8 ave       18172 max       16809 min
Histogram: 6 7 6 1 3 1 0 1 3 4
Neighs:    1.56146e+06 ave 1.78644e+06 max 1.41455e+06 min
Histogram: 1 4 10 5 4 2 2 0 2 2

Total # of neighbors = 49966659
Ave neighs/atom = 609.20091
Ave special neighs/atom = 10.922214
Neighbor list builds = 522
Dangerous builds = 0
unfix md2

# STEP 3 - md for tc caluclation
# 3a - impose nve
fix md3 all nve

# 3b - calculate and output thermal profile
compute ke all ke/atom
variable temp atom c_ke/(1.5*0.001987204)
compute layers all chunk/atom bin/1d y lower 0.05 units reduced
fix bins all ave/chunk ${nEvery} ${nRepeat} ${tLog} layers v_temp file Tprofile_y_lav.dat
fix bins all ave/chunk 10 ${nRepeat} ${tLog} layers v_temp file Tprofile_y_lav.dat
fix bins all ave/chunk 10 100 ${tLog} layers v_temp file Tprofile_y_lav.dat
fix bins all ave/chunk 10 100 1000 layers v_temp file Tprofile_y_lav.dat

# 3c - reset thermostats to zero energy accumulation
fix hot all langevin ${Thi} ${Thi} 100.0 57485 tally yes
fix hot all langevin 350 ${Thi} 100.0 57485 tally yes
fix hot all langevin 350 350 100.0 57485 tally yes
fix cold all langevin ${Tlo} ${Tlo} 100.0 12490 tally yes
fix cold all langevin 250 ${Tlo} 100.0 12490 tally yes
fix cold all langevin 250 250 100.0 12490 tally yes
fix_modify hot temp Thot
fix_modify cold temp Tcold

# 3c - compute average tdiff
fix ave all ave/time ${nEvery} ${nRepeat} ${tLog} v_tdiff ave running
fix ave all ave/time 10 ${nRepeat} ${tLog} v_tdiff ave running
fix ave all ave/time 10 100 ${tLog} v_tdiff ave running
fix ave all ave/time 10 100 1000 v_tdiff ave running

# 3d - time delay run
variable aTime equal time
variable start_time equal ${aTime}
variable start_time equal 20000
run ${tDelay}
run 1000
PPPM initialization ...
  using 12-bit tables for long-range coulomb (src/kspace.cpp:342)
  G vector (1/distance) = 0.27316341
  grid = 60 60 225
  stencil order = 5
  estimated absolute RMS force accuracy = 0.00037618852
  estimated relative force accuracy = 1.1328806e-06
  using double precision FFTW3
  3d grid and FFT values/proc = 47915 28800
Generated 120 of 120 mixed pair_coeff terms from arithmetic mixing rule
Per MPI rank memory allocation (min/avg/max) = 41.91 | 42.57 | 43.45 Mbytes
   Step          Time           Temp         Temp_hot      Temp_cold        E_hot          E_cold       dTemp_step       Press         Enthalpy        TotEng         KinEng         PotEng    
     20000   20000          299.29269      349.33544      253.94064     -0             -0              95.394793     -23.402856     -572100.33     -571836.15      73171.992     -645008.15    
     21000   21000          300.23015      347.51141      256.55705     -348.70843      555.03816      90.95436       74.196573     -571218.16     -572055.71      73401.185     -645456.9     
Loop time of 42.4273 on 32 procs for 1000 steps with 82020 atoms

Performance: 2.036 ns/day, 11.785 hours/ns, 23.570 timesteps/s, 1.933 Matom-step/s
99.6% CPU use with 32 MPI tasks x 1 OpenMP threads

MPI task timing breakdown:
Section |  min time  |  avg time  |  max time  |%varavg| %total
---------------------------------------------------------------
Pair    | 22.931     | 26.086     | 31.307     |  40.4 | 61.48
Bond    | 0.59985    | 0.64386    | 0.76924    |   5.4 |  1.52
Kspace  | 6.3704     | 11.661     | 14.809     |  60.8 | 27.49
Neigh   | 2.5208     | 2.5305     | 2.5379     |   0.3 |  5.96
Comm    | 0.72805    | 0.82329    | 0.93851    |   6.5 |  1.94
Output  | 0.00013513 | 0.00014246 | 0.00028529 |   0.0 |  0.00
Modify  | 0.55101    | 0.60983    | 0.6664     |   3.9 |  1.44
Other   |            | 0.07202    |            |       |  0.17

Nlocal:        2563.12 ave        2717 max        2431 min
Histogram: 4 2 5 4 4 4 1 3 2 3
Nghost:        17316.4 ave       18131 max       16815 min
Histogram: 6 8 5 1 2 2 0 0 4 4
Neighs:    1.56151e+06 ave 1.77134e+06 max 1.41173e+06 min
Histogram: 1 4 9 3 5 3 3 0 1 3

Total # of neighbors = 49968314
Ave neighs/atom = 609.22109
Ave special neighs/atom = 10.922214
Neighbor list builds = 51
Dangerous builds = 0

# 3f - calculate kappa
variable kappa_inst equal (0.5*(abs(f_hot)+abs(f_cold))/(time-${start_time})/(lx*lz)/2.0)*(ly/2.0)/v_tdiff*69478.5785
variable kappa_inst equal (0.5*(abs(f_hot)+abs(f_cold))/(time-20000)/(lx*lz)/2.0)*(ly/2.0)/v_tdiff*69478.5785
variable kappa equal (0.5*(abs(f_hot)+abs(f_cold))/(time-${start_time})/(lx*lz)/2.0)*(ly/2.0)/f_ave*69478.5785
variable kappa equal (0.5*(abs(f_hot)+abs(f_cold))/(time-20000)/(lx*lz)/2.0)*(ly/2.0)/f_ave*69478.5785

# 3e - thermo out
# dump dump_tc all custom 1000 dump.tc_x_ehex.lammpstrj id type mol x y z ix iy iz vx vy vz
thermo_style custom step time v_kappa v_kappa_inst c_Thot c_Tcold v_tdiff f_ave temp press enthalpy etotal ke pe
WARNING: New thermo_style command, previous thermo_modify settings will be lost (src/output.cpp:904)
thermo_modify colname v_kappa kappa colname v_kappa_inst kappa_inst               colname c_Thot Temp_hot colname c_Tcold Temp_cold               colname v_tdiff dTemp_step colname f_ave dTemp
thermo_modify flush yes
thermo ${tLog}
thermo 1000

# 2g - md run for kappa calculation
# optional traj dump
if "${boolDump} == 1" then     "dump tc_dump all atom ${tDump} dump.tc_y.lammpstrj"
run ${tTCrun}
run 1000000
PPPM initialization ...
  using 12-bit tables for long-range coulomb (src/kspace.cpp:342)
  G vector (1/distance) = 0.27316341
  grid = 60 60 225
  stencil order = 5
  estimated absolute RMS force accuracy = 0.00037618852
  estimated relative force accuracy = 1.1328806e-06
  using double precision FFTW3
  3d grid and FFT values/proc = 47915 28800
Generated 120 of 120 mixed pair_coeff terms from arithmetic mixing rule
Per MPI rank memory allocation (min/avg/max) = 42.41 | 43.07 | 43.95 Mbytes
   Step          Time          kappa        kappa_inst      Temp_hot      Temp_cold      dTemp_step       dTemp           Temp          Press         Enthalpy        TotEng         KinEng         PotEng    
     21000   21000          0              0              348.00491      256.55705      91.447855      94.159364      300.23015      74.196573     -571218.16     -572055.71      73401.185     -645456.9     
     22000   22000          0.17486735     0.1979581      341.74505      258.9485       82.79655       93.729606      298.74711     -279.05268     -575116.55     -571966.52      73038.607     -645005.13    
     23000   23000          0.25905935     0.23019567     353.15494      247.8781       105.27685      93.547193      298.40276      198.0994      -569626.8      -571863.01      72954.419     -644817.42    
     24000   24000          0.27127503     0.28223265     345.64371      255.25858      90.38513       94.036058      299.22031     -181.99555     -574066.79     -572012.36      73154.296     -645166.66    
     25000   25000          0.2909646      0.30989049     340.29048      251.69047      88.600011      94.363026      299.31883     -489.52276     -577475.24     -571949.35      73178.383     -645127.73    
     26000   26000          0.30290523     0.28092794     350.89085      248.77098      102.11987      94.710565      299.64611     -186.66622     -573980.85     -571873.7       73258.397     -645132.1     
     27000   27000          0.30969792     0.33450579     342.8789       255.14202      87.736886      94.764912      298.65572     -20.97643      -572322.59     -572085.8       73016.263     -645102.06    
     28000   28000          0.3133731      0.29381222     349.80566      248.7715       101.03416      94.727562      299.43278      78.181911     -571223.52     -572106.06      73206.243     -645312.31    
     29000   29000          0.30700724     0.29402372     349.92109      250.82638      99.094705      94.903933      298.82456     -250.08104     -574793.29     -571970.3       73057.542     -645027.84    
     30000   30000          0.30631742     0.28608699     353.02584      251.2044       101.82144      95.096744      299.68695     -181.77607     -574107.3      -572055.36      73268.383     -645323.74    
     31000   31000          0.31189768     0.28864615     350.83387      247.98422      102.84966      95.18236       299.03026     -26.194909     -572490.75     -572195.05      73107.832     -645302.89    
     32000   32000          0.3112969      0.30008373     346.8973       248.09609      98.801209      95.242306      298.27103      91.146209     -571269.98     -572298.87      72922.215     -645221.08    
     33000   33000          0.31028623     0.30197071     348.63257      250.81385      97.818721      95.197226      299.60072     -203.2401      -574231.47     -571937.23      73247.302     -645184.54    
     34000   34000          0.30888797     0.31356738     347.59755      253.7765       93.821045      95.242359      299.28628      234.62589     -569222.22     -571870.75      73170.425     -645041.18    
     35000   35000          0.30924922     0.30243458     346.30174      248.7991       97.502637      95.354062      298.2808       350.73121     -567629.07     -571588.24      72924.603     -644512.84    
     36000   36000          0.31078256     0.33082052     340.00632      250.45143      89.554883      95.329006      298.38996     -108.47406     -573140.59     -571916.1       72951.291     -644867.39    
     37000   37000          0.31368119     0.30303357     346.3739       247.84436      98.529546      95.18505       298.3551      -142.40662     -573769.39     -572161.86      72942.768     -645104.63    
     38000   38000          0.31165369     0.31470032     351.49163      257.26997      94.221661      95.142742      299.61705     -281.05136     -575200.29     -572027.7       73251.293     -645278.99    
     39000   39000          0.31701956     0.29347794     351.75196      249.15569      102.59627      94.977548      298.98854      326.48366     -568425.04     -572110.49      73097.633     -645208.13    
     40000   40000          0.31942676     0.30802624     352.1282       253.73746      98.390744      94.879121      300.10446     -230.11318     -574683.82     -572086.23      73370.458     -645456.68    
     41000   41000          0.32026774     0.32970348     346.74494      254.54903      92.195906      94.912186      298.91594     -66.322224     -572866.71     -572118.05      73079.884     -645197.93    
     42000   42000          0.32221549     0.35055329     344.09666      256.82491      87.271752      94.947016      297.7591       208.94766     -569965.07     -572323.74      72797.055     -645120.79    
     43000   43000          0.32243359     0.30995218     347.63145      248.79512      98.836332      95.010376      297.9245       372.8004      -568131.43     -572339.71      72837.493     -645177.21    
     44000   44000          0.3192823      0.30449469     348.30857      248.66611      99.642463      95.027506      297.83505      183.31317     -570133.84     -572203.13      72815.625     -645018.76    
     45000   45000          0.31860231     0.34166263     344.02147      255.36102      88.660455      95.077669      296.73565     -203.758       -574495.25     -572195.16      72546.84      -644742       
     46000   46000          0.32109809     0.34117142     342.2413       252.82159      89.41971       95.009752      297.57254     -274.20771     -575543.98     -572448.64      72751.444     -645200.08    
     47000   47000          0.32138701     0.33802753     345.35229      255.0339       90.318394      94.994827      299.39694      11.724429     -572221.79     -572354.14      73197.48      -645551.62    
     48000   48000          0.31980526     0.29953669     346.35842      244.91589      101.44253      95.01332       297.49234      105.90113     -571185.96     -572381.41      72731.838     -645113.25    
     49000   49000          0.31911861     0.32285147     346.46214      252.55041      93.91173       95.010254      298.1879      -388.5465      -576678.93     -572292.89      72901.89      -645194.78    
     50000   50000          0.32082389     0.32176232     348.0778       253.36412      94.713672      94.990716      297.32429     -66.87085      -572936.78     -572181.92      72690.751     -644872.67    
     51000   51000          0.31922843     0.32842558     354.81502      262.46937      92.345647      95.006175      299.64061     -162.79273     -573671.1      -571833.45      73257.052     -645090.5     
     52000   52000          0.32297451     0.32838779     352.54522      259.12598      93.419243      94.985017      300.58912      226.99556     -569315.11     -571877.51      73488.948     -645366.46    
     53000   53000          0.32047185     0.37548434     339.80788      258.68326      81.124625      95.050552      299.58266      62.186266     -571185.27     -571887.25      73242.885     -645130.13    
     54000   54000          0.3214095      0.30612989     354.26877      254.52135      99.747423      95.005492      299.19545     -233.30586     -574419.22     -571785.59      73148.218     -644933.81    
     55000   55000          0.32309997     0.32439429     349.02547      254.35527      94.670205      95.049448      299.94667     -429.97351     -576595.32     -571741.65      73331.879     -645073.52    
     56000   56000          0.3198007      0.31227827     350.64125      253.28437      97.356884      95.066835      298.38802      55.628783     -571423.22     -572051.18      72950.816     -645001.99    
     57000   57000          0.32123566     0.32968058     346.81288      254.19619      92.616689      95.051477      299.80114     -339.64985     -575829.49     -571995.42      73296.3       -645291.72    
     58000   58000          0.32065601     0.31835621     352.21997      256.47273      95.747236      95.060522      299.21694      260.8044      -569020.5      -571964.55      73153.474     -645118.02    
     59000   59000          0.32025555     0.32213633     347.58678      253.08623      94.500548      95.055525      298.76202     -420.60885     -577023.8      -572275.83      73042.252     -645318.08    
     60000   60000          0.31800193     0.34705966     342.45748      255.39104      87.06644       95.022218      297.72002      327.85353     -568579.9      -572280.82      72787.502     -645068.32    
     61000   61000          0.31986389     0.29393686     352.54894      249.15277      103.39617      95.015239      299.44274     -72.174539     -572833.49     -572018.76      73208.676     -645227.44    
     62000   62000          0.31789691     0.30110801     348.65491      248.36348      100.29144      94.994803      299.00986      202.99387     -569575.33     -571866.79      73102.845     -644969.63    
     63000   63000          0.31808995     0.34466077     345.07041      257.36527      87.705144      95.031364      298.80031     -469.62248     -577316.82     -572015.57      73051.614     -645067.19    
     64000   64000          0.31616567     0.30881745     347.98989      250.69567      97.294217      95.032938      298.36684      164.66675     -570276.14     -572134.95      72945.638     -645080.59    
     65000   65000          0.31601752     0.33857247     345.99983      257.32919      88.670645      94.999289      300.12442     -433.79428     -576576.9      -571680.09      73375.337     -645055.43    
     66000   66000          0.31661976     0.31089089     349.32082      252.57833      96.742486      94.992043      298.33535     -341.37055     -575697.63     -571844.13      72937.94      -644782.07    
     67000   67000          0.31701747     0.34199088     341.94864      253.91216      88.036481      94.971655      299.87673      261.56771     -568786.62     -571739.28      73314.779     -645054.06    
     68000   68000          0.31783538     0.31762708     349.22588      254.20346      95.022422      94.960146      299.15908     -181.85931     -573873.76     -571820.87      73139.327     -644960.2     
     69000   69000          0.31906849     0.29050797     354.05384      249.72328      104.33056      94.991701      299.09128     -645.04815     -579299.43     -572017.92      73122.752     -645140.67    
     70000   70000          0.31669804     0.30876321     347.98736      250.54567      97.441683      95.000294      299.11722     -276.18783     -575524.12     -572406.42      73129.094     -645535.52    
     71000   71000          0.31874981     0.32332569     344.663        250.99378      93.669217      95.013905      298.49535     -407.19924     -576776.65     -572180.06      72977.057     -645157.11    
     72000   72000          0.31986564     0.28758852     354.43446      248.74842      105.68604      95.021436      299.75554     -76.003923     -572846.1      -571988.14      73285.152     -645273.29    
     73000   73000          0.31957381     0.33437896     343.66245      252.77973      90.882717      95.093112      298.37291     -228.58425     -574628.56     -572048.23      72947.122     -644995.35    
     74000   74000          0.31763463     0.31951225     347.57177      253.03311      94.538657      95.0975        299.4951      -499.98452     -577947.62     -572303.63      73221.478     -645525.11    
     75000   75000          0.31854537     0.33127791     342.77339      251.38989      91.383495      95.036174      297.66855      182.16026     -570276.95     -572333.23      72774.918     -645108.15    
     76000   76000          0.31791109     0.3090356      349.06092      251.26827      97.792646      95.062456      299.40965      101.74284     -570653.42     -571801.93      73200.587     -645002.52    
     77000   77000          0.31715049     0.30653975     346.96218      248.60704      98.355143      95.064528      299.79222     -84.955256     -573051.33     -572092.33      73294.119     -645386.45    
     78000   78000          0.31717683     0.35437036     341.07252      255.99471      85.077806      95.054397      297.93879      5.5958665     -572212.85     -572276.02      72840.988     -645117       
     79000   79000          0.31759021     0.3058223      353.01705      254.28777      98.729275      95.070986      298.44399     -436.80034     -577072.48     -572141.74      72964.499     -645106.23    
     80000   80000          0.31838532     0.29782913     347.8499       246.20392      101.64599      95.083329      299.22203     -101.27443     -573245.02     -572101.8       73154.718     -645256.52    
     81000   81000          0.31853203     0.34217133     343.17993      254.65724      88.522683      95.09224       299.70112     -268.87764     -574997.48     -571962.31      73271.847     -645234.15    
     82000   82000          0.31785471     0.2923415      353.3998       250.0131       103.3867       95.088173      298.87373      225.6448      -569643.28     -572190.43      73069.564     -645260       
     83000   83000          0.31807687     0.32947085     346.86389      255.07969      91.784194      95.072037      300.08148     -14.618772     -572107.26     -571942.24      73364.838     -645307.08    
     84000   84000          0.31824785     0.30588511     345.7442       246.84921      98.894998      95.053297      298.76742     -118.66122     -573212.49     -571873         73043.573     -644916.58    
     85000   85000          0.31884519     0.3038756      349.4308       249.66763      99.763167      95.079346      299.65354     -152.70666     -573268.44     -571544.64      73260.213     -644804.85    
     86000   86000          0.31856639     0.31617923     353.09959      257.26561      95.833982      95.115856      301.30459      27.517956     -571274.24     -571584.88      73663.867     -645248.74    
     87000   87000          0.31779692     0.31013615     349.58273      252.05549      97.527242      95.176261      300.50346     -318.96485     -575215.08     -571614.51      73468.006     -645082.51    
     88000   88000          0.31860596     0.31094449     350.62197      253.06612      97.555843      95.209932      299.16113     -280.83264     -574698.66     -571528.53      73139.828     -644668.36    
     89000   89000          0.31696645     0.32329916     343.83657      250.49351      93.343059      95.207972      300.14914     -238.88415     -574347.12     -571650.52      73381.379     -645031.9     
     90000   90000          0.3168277      0.34581441     341.72579      254.49284      87.23295       95.21393       300.37615      123.63054     -570444.52     -571840.1       73436.88      -645276.98    
     91000   91000          0.31736972     0.33027776     347.35274      255.86779      91.484959      95.20583       300.13981     -234.70617     -574255.68     -571606.24      73379.098     -644985.34    
     92000   92000          0.31637802     0.27191173     359.44966      248.63333      110.81633      95.241321      298.60915      118.42835     -570379.21     -571716.07      73004.878     -644720.94    
     93000   93000          0.3158993      0.33009453     345.97284      254.81525      91.157593      95.253845      300.21151      275.95029     -568809.34     -571924.36      73396.628     -645320.98    
     94000   94000          0.31603827     0.31078866     350.51272      253.6585       96.854224      95.245409      299.42453     -263.999       -575059.19     -572079.08      73204.225     -645283.31    
     95000   95000          0.31558575     0.33091349     345.68455      254.84613      90.838415      95.250362      298.8883      -63.884902     -572509.69     -571788.54      73073.126     -644861.67    
     96000   96000          0.31667278     0.3336209      345.48248      255.09413      90.38835       95.225877      299.85058     -407.1861      -576283.21     -571686.76      73308.388     -644995.15    
     97000   97000          0.31604893     0.32719026     342.76723      250.78865      91.978583      95.221004      299.24529     -98.878725     -572839.67     -571723.49      73160.405     -644883.9     
     98000   98000          0.31635901     0.34360668     342.43611      254.7576       87.678507      95.230165      300.71289     -3.5066264     -571791.92     -571752.33      73519.208     -645271.54    
     99000   99000          0.31623965     0.30565157     354.85009      256.35071      98.499376      95.2015        301.05942     -39.889859     -571829.61     -571379.32      73603.928     -644983.24    
    100000   100000         0.31530676     0.33864024     341.77226      253.11954      88.652724      95.213244      300.59334     -200.54286     -573812.7      -571548.91      73489.979     -645038.89    
    101000   101000         0.31556554     0.30994195     352.49927      255.56642      96.932855      95.205445      299.95684     -208.71694     -574060.45     -571704.38      73334.366     -645038.75    
    102000   102000         0.31518715     0.33051965     344.20032      253.42092      90.779395      95.195424      298.26459     -111.39969     -573266.81     -572009.29      72920.638     -644929.93    
    103000   103000         0.31523074     0.34749889     340.55483      254.19608      86.358754      95.198747      299.25653     -107.98609     -573265.03     -572046.05      73163.153     -645209.2     
    104000   104000         0.31612852     0.30440915     355.14597      256.30694      98.839025      95.174909      298.84008     -0.018701763   -571810.97     -571810.76      73061.337     -644872.1     
    105000   105000         0.31504127     0.30795052     348.15521      250.78173      97.373486      95.181866      298.11966     -190.73893     -574200.49     -572047.37      72885.206     -644932.57    
    106000   106000         0.31519934     0.32009341     348.38365      254.67278      93.710867      95.165906      299.29618      39.475517     -571592.25     -572037.87      73172.846     -645210.71    
    107000   107000         0.3148265      0.32048861     347.94455      254.47253      93.472019      95.153101      300.26148     -191.72543     -574054.79     -571890.53      73408.845     -645299.37    
    108000   108000         0.3157679      0.3148173      349.01551      253.56757      95.447941      95.160599      298.9271      -384.3625      -576664.11     -572325.3       73082.613     -645407.92    
    109000   109000         0.31524624     0.3160423      346.28738      251.35752      94.929864      95.169583      298.99327      70.940032     -571310.34     -572111.14      73098.79      -645209.92    
    110000   110000         0.31637197     0.32258426     344.28841      250.95779      93.330621      95.163265      298.28892      32.796588     -571913.4      -572283.62      72926.588     -645210.2     
    111000   111000         0.31607344     0.33281594     340.14858      249.78553      90.36305       95.149609      297.78595     -16.164778     -572663.55     -572481.08      72803.619     -645284.7     
    112000   112000         0.31574766     0.29720268     351.92246      250.84346      101.07901      95.142278      299.05958     -7.8141067     -572240.55     -572152.34      73115.002     -645267.34    
    113000   113000         0.31497325     0.34552387     339.95888      253.24574      86.713138      95.123821      299.54933     -92.540435     -573414.19     -572369.57      73234.738     -645604.3     
    114000   114000         0.31597947     0.31759781     347.47105      252.83696      94.634089      95.118772      300.13885     -115.43221     -573293.6      -571990.56      73378.864     -645369.43    
    115000   115000         0.31661511     0.31843384     348.57156      253.96675      94.604807      95.148245      298.91045      137.56598     -570667.81     -572220.7       73078.54      -645299.24    
    116000   116000         0.31539901     0.3339081      344.82768      254.95506      89.872628      95.146777      299.54343      64.525336     -571377.39     -572105.77      73233.293     -645339.06    
    117000   117000         0.315625       0.30756702     349.30355      251.68942      97.614134      95.122022      298.75984     -95.669741     -573336.27     -572256.32      73041.719     -645298.04    
    118000   118000         0.31517167     0.36650511     339.57691      257.78502      81.791884      95.113698      297.99796      180.0631      -570387.28     -572419.89      72855.454     -645275.35    
    119000   119000         0.31540887     0.36105052     337.66232      254.57458      83.087742      95.111061      297.1225       63.617288     -571707.34     -572425.47      72641.418     -645066.89    
    120000   120000         0.3158696      0.31908553     350.34567      256.19854      94.147126      95.105657      298.47267     -32.932071     -572636.87     -572265.12      72971.512     -645236.64    
    121000   121000         0.31647447     0.32607598     349.74341      257.44458      92.298828      95.099081      299.04174      164.61144     -569912.13     -571770.32      73110.64      -644880.96    
    122000   122000         0.31672247     0.30653307     350.53419      252.26889      98.265294      95.103965      299.20799      23.754548     -571779.52     -572047.67      73151.285     -645198.96    
    123000   123000         0.31693872     0.2932568      353.16115      250.36033      102.80081      95.119453      298.65826     -343.6318      -575917.07     -572038.05      73016.886     -645054.93    
    124000   124000         0.3160389      0.30365757     352.88673      253.89239      98.994335      95.116074      299.34134      91.36775      -571303.6      -572334.99      73183.886     -645518.88    
    125000   125000         0.31589168     0.30871538     347.79641      250.47587      97.320538      95.109649      297.95262     -119.21323     -573901.11     -572555.39      72844.369     -645399.76    
    126000   126000         0.31636558     0.33655939     341.96811      252.56185      89.406256      95.113113      298.95153     -220.8287      -574950.89     -572458.11      73088.584     -645546.69    
    127000   127000         0.31644407     0.30214676     353.32485      253.7305       99.594349      95.094559      298.3591       208.59619     -570147.06     -572501.76      72943.746     -645445.5     
    128000   128000         0.31567269     0.31201652     344.05052      247.85781      96.192704      95.078584      296.38133      6.3896929     -572560.22     -572632.35      72460.213     -645092.56    
    129000   129000         0.31528119     0.330189       346.92593      256.12916      90.796771      95.090023      298.66177     -303.59372     -575835.01     -572407.95      73017.744     -645425.7     
    130000   130000         0.31554739     0.32973161     342.24004      251.22878      91.011262      95.102323      297.98002     -440.33964     -577118.93     -572148.24      72851.067     -644999.31    
    131000   131000         0.31590927     0.30062947     348.88794      248.93423      99.953714      95.119183      298.10175     -365.57281     -576409.5      -572282.8       72880.827     -645163.63    
    132000   132000         0.31541229     0.30419448     348.32316      249.69755      98.625602      95.117928      299.11662      329.47722     -568426.13     -572145.38      73128.945     -645274.32    
    133000   133000         0.31510037     0.32748518     341.93185      250.39423      91.537622      95.135448      298.6648      -82.350916     -572972.86     -572043.25      73018.485     -645061.74    
    134000   134000         0.315128       0.28808658     351.91389      247.84568      104.06821      95.138022      299.57219     -665.76108     -579664.51     -572149.19      73240.325     -645389.51    
    135000   135000         0.31474863     0.29940977     344.66811      244.62439      100.04373      95.168225      298.05318     -40.196029     -572534.36     -572080.61      72868.954     -644949.57    
    136000   136000         0.31405483     0.31642917     345.3539       250.8966       94.457294      95.171416      298.19107      39.939577     -571779.98     -572230.84      72902.666     -645133.5     
    137000   137000         0.31318512     0.30427145     352.92         254.96161      97.958389      95.170364      299.86633     -171.48089     -573923.97     -571988.24      73312.238     -645300.48    
    138000   138000         0.31423903     0.32510775     350.04114      258.06023      91.980912      95.162298      299.82843     -350.64716     -575467.95     -571509.73      73302.972     -644812.71    
    139000   139000         0.31418413     0.28895727     351.20286      247.73664      103.46623      95.158591      299.81228      274.04822     -568580.37     -571673.92      73299.024     -644972.94    
    140000   140000         0.31381502     0.32955558     345.25622      254.65359      90.602627      95.14714       298.5312      -366.48577     -576342.32     -572205.31      72985.822     -645191.13    
    141000   141000         0.31382964     0.31024087     349.11348      252.8628       96.250685      95.150018      298.8627      -244.29865     -574695.44     -571937.72      73066.867     -645004.58    
    142000   142000         0.31305153     0.33521626     347.05023      258.19707      88.853159      95.144157      300.15816     -342.62156     -575720.52     -571852.9       73383.586     -645236.49    
    143000   143000         0.31364326     0.3264389      344.41212      252.99605      91.416074      95.145555      299.82935     -137.11417     -573231.34     -571683.56      73303.198     -644986.75    
    144000   144000         0.31407879     0.30168561     354.4066       255.34509      99.06151       95.152659      299.75384      38.66756      -571334.91     -571771.4       73284.737     -645056.14    
    145000   145000         0.31359204     0.31831683     351.71161      257.97453      93.737076      95.149383      300.13617      210.41936     -569913.61     -572288.89      73378.21      -645667.1     
    146000   146000         0.31382488     0.30570625     350.82901      253.1432       97.68581       95.158684      298.65943     -40.90273      -572689.7      -572227.98      73017.171     -645245.15    
    147000   147000         0.31409874     0.30323836     347.51823      248.95021      98.568018      95.1599        297.59855     -72.730541     -573241.65     -572420.64      72757.804     -645178.45    
    148000   148000         0.31357286     0.30808744     349.28123      252.42814      96.853091      95.158811      297.95388      253.36642     -569629.47     -572489.55      72844.676     -645334.22    
    149000   149000         0.31381466     0.29263095     358.15321      256.10731      102.0459       95.157406      298.378        119.8681      -571090.91     -572444.02      72948.367     -645392.39    
    150000   150000         0.31434972     0.29379622     352.46524      250.63186      101.83337      95.175078      299.08907     -105.90266     -573394.97     -572199.51      73122.21      -645321.72    
    151000   151000         0.31431633     0.26886737     358.53592      247.25885      111.27707      95.186826      299.39772     -92.513068     -573342.42     -572298.11      73197.67      -645495.78    
    152000   152000         0.3140844      0.29541185     351.92451      250.69224      101.23226      95.213931      298.20915     -3.1181825     -572219.24     -572184.04      72907.084     -645091.13    
    153000   153000         0.31322988     0.31974255     347.10007      253.82946      93.270609      95.20989       297.89107     -144.55095     -573906.97     -572275.23      72829.32      -645104.55    
    154000   154000         0.31340958     0.32071586     349.59898      256.57887      93.020119      95.188626      299.46234     -201.38306     -574481.78     -572208.5       73213.47      -645421.97    
    155000   155000         0.31391207     0.32199003     346.78874      253.99438      92.794358      95.182253      298.19735     -31.752427     -572568.29     -572209.86      72904.201     -645114.06    
    156000   156000         0.3138662      0.30314442     347.06923      248.53099      98.538241      95.17214       297.6975      -15.980308     -572367.42     -572187.03      72781.996     -644969.03    
    157000   157000         0.31428421     0.2920509      356.90603      254.49457      102.41146      95.166598      299.66828      160.60179     -570355.79     -572168.71      73263.818     -645432.53    
    158000   158000         0.31386061     0.33703113     343.49899      254.88937      88.609619      95.151156      297.7941      -282.64943     -575579.31     -572388.68      72805.613     -645194.29    
    159000   159000         0.31439429     0.33879887     340.93992      252.66695      88.272963      95.125073      297.62181     -184.66825     -574631.78     -572547.19      72763.49      -645310.68    
    160000   160000         0.31436792     0.31338206     347.40108      251.98241      95.418677      95.119446      298.88016     -74.403712     -573287.56     -572447.67      73071.135     -645518.8     
    161000   161000         0.31526217     0.28236503     353.06655      246.86851      106.19804      95.116427      298.74384      85.211662     -571548.27     -572510.16      73037.808     -645547.97    
    162000   162000         0.31548722     0.28874807     356.42291      252.50418      103.91873      95.111083      298.73943     -169.85455     -574137.37     -572220         73036.73      -645256.73    
    163000   163000         0.31525261     0.31694592     348.09342      253.49051      94.602917      95.111056      298.81206     -319.4577      -575599.49     -571993.35      73054.486     -645047.84    
    164000   164000         0.31498387     0.32431779     343.74561      251.35827      92.387343      95.125058      298.78545      248.05069     -569201.14     -572001.21      73047.981     -645049.19    
    165000   165000         0.31506823     0.29340696     347.2045       245.05831      102.1462       95.123537      299.36942     -245.87018     -574871.51     -572096.05      73190.752     -645286.8     
    166000   166000         0.31445372     0.33044162     342.87017      252.34663      90.523535      95.12606       299.33427      27.572453     -571910.16     -572221.4       73182.159     -645403.56    
    167000   167000         0.31460606     0.33579031     337.61058      248.50813      89.10245       95.102234      297.7323      -193.7448      -574476.7      -572289.65      72790.504     -645080.16    
    168000   168000         0.31498446     0.30790563     351.25652      253.97714      97.279381      95.093164      298.64491     -137.54465     -573558.82     -572006.17      73013.621     -645019.79    
    169000   169000         0.31500242     0.30688068     346.07021      248.45689      97.613329      95.096553      297.89487     -342.05997     -576301.95     -572440.67      72830.248     -645270.92    
    170000   170000         0.31548621     0.32185104     343.40518      250.18639      93.218792      95.09945       297.87566      20.532028     -572111.35     -572343.12      72825.552     -645168.67    
    171000   171000         0.31536627     0.32870762     345.52986      254.30016      91.229705      95.089116      298.56471     -285.61443     -575498.16     -572274.06      72994.013     -645268.07    
    172000   172000         0.31523937     0.32168065     346.21851      253.04169      93.176822      95.080702      299.27317     -354.04588     -576233.02     -572236.44      73167.22      -645403.65    
    173000   173000         0.31486117     0.32022145     346.39825      252.89952      93.498725      95.090471      299.1717       86.876857     -571445.04     -572425.74      73142.412     -645568.15    
    174000   174000         0.3147318      0.32221306     345.88192      253.0048       92.877117      95.084831      297.70169     -512.39186     -578133.66     -572349.62      72783.019     -645132.64    
    175000   175000         0.31515042     0.34094906     343.17101      255.27794      87.893071      95.088118      298.46174     -581.02555     -578742.6      -572183.8       72968.839     -645152.64    
    176000   176000         0.31484496     0.31033496     349.06876      252.5833       96.485459      95.103352      298.21247      273.34565     -569343.77     -572429.38      72907.898     -645337.28    
    177000   177000         0.31545052     0.30261401     350.31952      251.17292      99.146603      95.112068      299.13591     -506.40556     -577971.97     -572255.5       73133.663     -645389.16    
    178000   178000         0.31517358     0.33210046     344.64502      254.3802       90.26482       95.112632      298.3072       467.35894     -567112.27     -572387.96      72931.057     -645319.02    
    179000   179000         0.31529115     0.31952737     348.18976      254.33959      93.850175      95.111138      298.07044     -90.375012     -573434.26     -572414.08      72873.172     -645287.25    
    180000   180000         0.31559241     0.3029365      349.99795      250.90963      99.088325      95.114677      297.9276      -384.6588      -576642.28     -572300.13      72838.252     -645138.38    
    181000   181000         0.31566178     0.30567859     350.27175      252.02501      98.246742      95.139567      299.01877     -61.300952     -572867.36     -572175.38      73105.024     -645280.4     
    182000   182000         0.31512573     0.30819773     348.42563      251.13         97.295637      95.156605      299.46244     -12.707297     -572583.1      -572439.65      73213.494     -645653.15    
    183000   183000         0.31502426     0.35385864     337.94641      253.23802      84.708394      95.150756      297.9158      -138.19308     -573847.17     -572287.2       72835.367     -645122.57    
    184000   184000         0.31555779     0.30162464     351.66956      252.12134      99.548219      95.152761      299.66114     -131.13044     -573257.14     -571776.9       73262.072     -645038.97    
    185000   185000         0.31525699     0.3300361      343.00474      252.11118      90.89356       95.15461       299.363       -273.76728     -575070.3      -571979.93      73189.182     -645169.11    
    186000   186000         0.31507984     0.34176248     340.19613      252.46296      87.733175      95.162889      299.36355      225.21001     -569329.67     -571871.91      73189.316     -645061.23    
    187000   187000         0.31513238     0.30528796     351.00339      252.76823      98.235156      95.166388      299.67149      60.897282     -571409.76     -572097.19      73264.602     -645361.79    
    188000   188000         0.31560145     0.31142198     345.38706      248.95244      96.434622      95.157551      298.49282     -269.20402     -575473.76     -572434.9       72976.437     -645411.34    
    189000   189000         0.31478043     0.31627229     347.70007      252.98028      94.719786      95.168696      300.30349      163.54811     -570117.73     -571963.92      73419.115     -645383.03    
    190000   190000         0.31567187     0.32668707     347.57493      255.62142      91.953507      95.162176      299.87527     -280.19657     -575116.42     -571953.48      73314.424     -645267.9     
    191000   191000         0.31593173     0.32254316     346.82927      253.60788      93.221392      95.172215      300.23419     -202.47947     -573869.75     -571584.1       73402.173     -644986.27    
    192000   192000         0.31617134     0.31388707     346.82993      250.96501      95.864917      95.172316      300.29804     -149.73785     -573599.03     -571908.74      73417.783     -645326.53    
    193000   193000         0.31602584     0.33157423     348.72582      258.01562      90.710196      95.173115      299.84885     -106.33719     -572969.45     -571769.09      73307.965     -645077.05    
    194000   194000         0.31621813     0.31254565     350.44957      254.14943      96.300138      95.181732      301.25287     -80.171212     -572376.69     -571471.69      73651.224     -645122.92    
    195000   195000         0.31639986     0.30377698     350.05991      250.9061       99.153806      95.198031      299.5134      -305.50634     -575044.06     -571595.41      73225.953     -644821.36    
    196000   196000         0.31613957     0.33430277     343.7189       253.69579      90.023103      95.195207      299.2275      -132.3621      -573148.17     -571654.02      73156.054     -644810.08    
    197000   197000         0.31599133     0.32565855     346.29781      253.93768      92.360128      95.18573       299.13522     -205.73726     -574049.51     -571727.09      73133.494     -644860.58    
    198000   198000         0.31592367     0.3257042      341.59608      249.27685      92.319234      95.177302      298.91102      18.479027     -571925.62     -572134.22      73078.682     -645212.9     
    199000   199000         0.31655547     0.31295215     351.53346      255.25209      96.281368      95.185408      299.89957      65.751199     -571128.2      -571870.42      73320.366     -645190.79    
    200000   200000         0.3156386      0.3310079      346.50515      255.72907      90.776078      95.196211      298.48923     -221.67766     -574589.22     -572086.86      72975.561     -645062.42    
    201000   201000         0.31607415     0.33226743     340.96583      250.41211      90.553728      95.193026      298.86183     -247.22152     -575115.12     -572324.4       73066.654     -645391.06    
    202000   202000         0.31665422     0.31236468     349.17323      252.67245      96.500779      95.193537      298.63989     -261.49418     -575447.82     -572495.99      73012.393     -645508.39    
    203000   203000         0.31638865     0.32052396     348.06503      254.09599      93.969039      95.19725       298.29693      69.096163     -571628.62     -572408.6       72928.547     -645337.15    
    204000   204000         0.31641889     0.33706252     348.28656      258.9245       89.362053      95.192162      299.85774     -301.84201     -575878.51     -572471.22      73310.137     -645781.36    
    205000   205000         0.31682874     0.31457974     348.42263      252.55466      95.867979      95.187464      299.3337      -364.3006      -576184.53     -572072.19      73182.02      -645254.21    
    206000   206000         0.31676943     0.31976846     350.50221      256.21355      94.288652      95.181334      300.44629      342.6364      -568065.81     -571933.6       73454.029     -645387.63    
    207000   207000         0.31688634     0.29541798     354.26238      252.15662      102.10576      95.188316      299.23136     -212.82697     -574537.86     -572135.4       73156.999     -645292.4     
    208000   208000         0.31674924     0.30316493     352.65397      253.20264      99.451331      95.186197      298.59372      41.898625     -571881.34     -572354.3       73001.106     -645355.41    
    209000   209000         0.31706551     0.30512555     349.52652      250.60687      98.919654      95.194566      298.48346      112.49439     -570951.29     -572221.16      72974.15      -645195.31    
    210000   210000         0.31731256     0.29599223     351.45839      249.40154      102.05686      95.199625      298.06315     -340.50834     -576038.26     -572194.49      72871.391     -645065.88    
    211000   211000         0.3171666      0.27975546     358.08715      250.1534       107.93374      95.202505      299.37225     -305.45236     -575767.62     -572319.58      73191.443     -645511.02    
    212000   212000         0.31636407     0.31283986     344.62683      248.34719      96.279639      95.207109      298.33794     -480.93587     -577985.87     -572556.91      72938.571     -645495.48    
    213000   213000         0.31642364     0.3006236      350.07456      249.87826      100.19631      95.193188      298.76392     -32.965291     -573139.39     -572767.26      73042.716     -645809.98    
    214000   214000         0.31636954     0.34057199     346.47617      258.03177      88.444396      95.210442      296.9993      -101.41913     -573760.57     -572615.72      72611.297     -645227.02    
    215000   215000         0.31623956     0.31486649     345.74064      250.11718      95.62346       95.208277      297.74262     -176.18873     -574775.85     -572786.97      72793.027     -645580       
    216000   216000         0.31630401     0.32026904     347.27025      253.2389       94.031351      95.210081      298.89526      113.7602      -571180.59     -572464.75      73074.829     -645539.58    
    217000   217000         0.31618841     0.32076788     344.69887      250.83836      93.860506      95.219921      297.80222     -65.857855     -573053.44     -572310.01      72807.597     -645117.61    
    218000   218000         0.31630195     0.30147548     352.93321      253.02557      99.907641      95.224531      299.52072     -266.48328     -575225.69     -572217.55      73227.741     -645445.29    
    219000   219000         0.31649748     0.29370567     356.78196      254.18601      102.59595      95.207747      299.55205     -106.5502      -573250.51     -572047.74      73235.403     -645283.14    
    220000   220000         0.31621375     0.2916485      352.34998      249.13433      103.21565      95.197282      298.75568     -436.45479     -577280.05     -572353.21      73040.703     -645393.91    
    221000   221000         0.31631472     0.32380831     346.20213      253.21074      92.991399      95.194392      298.58576     -375.63213     -576311.79     -572071.53      72999.161     -645070.69    
    222000   222000         0.31659921     0.29486101     352.56273      250.35324      102.20949      95.191627      297.78927      91.055886     -571002.46     -572030.33      72804.432     -644834.76    
    223000   223000         0.31668459     0.29546083     353.45822      251.4199       102.03832      95.19985       299.22963      47.041808     -571354.25     -571885.27      73156.575     -645041.85    
    224000   224000         0.31649788     0.31201383     345.52754      248.9567       96.570839      95.202653      299.14623     -343.2023      -576053.93     -572179.75      73136.186     -645315.94    
    225000   225000         0.31662795     0.30449425     348.96814      249.97093      98.997204      95.203468      299.19736     -346.73961     -576336.1      -572421.99      73148.686     -645570.68    
    226000   226000         0.31657265     0.31800009     345.39296      250.6199       94.773056      95.200392      297.905        412.59278     -567772.71     -572430.19      72832.725     -645262.91    
    227000   227000         0.31664968     0.29213705     349.79078      246.60141      103.18937      95.201226      298.39067     -115.35273     -573835.92     -572533.78      72951.463     -645485.24    
    228000   228000         0.31652923     0.34045139     340.67839      252.15889      88.5195        95.209489      298.17239     -343.08044     -576339.61     -572466.81      72898.099     -645364.91    
    229000   229000         0.31661754     0.31870886     347.51206      252.92706      94.584999      95.209754      299.94952     -7.1106042     -572266.47     -572186.21      73332.576     -645518.78    
    230000   230000         0.31656747     0.31065903     349.78946      252.76632      97.023133      95.212284      297.63507     -45.382771     -572781.98     -572269.69      72766.733     -645036.42    
    231000   231000         0.3164947      0.37707008     341.11661      261.19785      79.918753      95.214771      298.24797      81.111034     -571577.47     -572493.07      72916.576     -645409.65    
    232000   232000         0.31688293     0.30410102     347.71181      248.50321      99.208595      95.206879      297.77206     -231.65575     -575246.18     -572631.17      72800.225     -645431.4     
    233000   233000         0.31694385     0.30069063     350.43999      250.10367      100.33632      95.190968      298.87933     -47.494456     -573048.16     -572512.03      73070.932     -645582.96    
    234000   234000         0.31669374     0.31229225     349.13664      252.61425      96.52239       95.180899      298.08136      107.20242     -571303.77     -572513.91      72875.842     -645389.75    
    235000   235000         0.31694609     0.29478381     351.48381      249.14585      102.33796      95.182034      297.93841     -136.35305     -574033.24     -572494.04      72840.895     -645334.94    
    236000   236000         0.3170485      0.31129864     349.88193      252.95112      96.930809      95.172913      297.55698      98.208222     -571443.63     -572552.24      72747.64      -645299.88    
    237000   237000         0.31713453     0.30491083     356.44834      257.45608      98.992262      95.176682      299.41653      221.44446     -569960.73     -572460.47      73202.269     -645662.74    
    238000   238000         0.31694536     0.31814771     344.48449      249.66921      94.815288      95.174975      298.0119      -137.881       -574179.13     -572622.68      72858.862     -645481.55    
    239000   239000         0.31686715     0.31134517     351.95311      255.09438      96.858726      95.170788      299.17576      34.830538     -572008.38     -572401.56      73143.404     -645544.96    
    240000   240000         0.31670738     0.32671275     346.61733      254.36777      92.249564      95.163897      297.94053     -436.78375     -577573.99     -572643.44      72841.413     -645484.85    
    241000   241000         0.31661582     0.33916044     342.64388      253.80745      88.836426      95.162021      298.06801     -336.04691     -576575.76     -572782.36      72872.58      -645654.94    
    242000   242000         0.31627857     0.34264275     347.24873      259.41401      87.834725      95.156402      298.19276      110.45737     -571141.1      -572387.98      72903.078     -645291.05    
    243000   243000         0.31625193     0.32424909     346.5635       253.76549      92.798016      95.144628      297.31389     -82.907762     -573414.08     -572478.19      72688.209     -645166.4     
    244000   244000         0.31643917     0.31970624     339.34795      245.18964      94.158306      95.130443      296.79163      47.018747     -572505.89     -573036.65      72560.525     -645597.17    
    245000   245000         0.31673419     0.29410264     349.52926      247.08284      102.44641      95.12633       297.8827      -497.02068     -578400.72     -572790.2       72827.273     -645617.47    
    246000   246000         0.31657038     0.30238717     353.98954      254.40319      99.586356      95.124617      297.84098     -326.96416     -576179.66     -572488.79      72817.074     -645305.86    
    247000   247000         0.31655559     0.31638587     345.86749      250.69451      95.172973      95.121945      298.04742     -221.66814     -575418.15     -572915.89      72867.545     -645783.44    
    248000   248000         0.31670966     0.33737624     344.65648      255.36147      89.295003      95.121862      299.13853     -127.12122     -573851.75     -572416.77      73134.304     -645551.07    
    249000   249000         0.31646158     0.30765471     351.15781      253.30495      97.852867      95.129701      298.75184      41.904779     -572082.04     -572555.07      73039.763     -645594.84    
    250000   250000         0.31648437     0.33796742     342.36193      253.27653      89.085393      95.132537      299.10669      79.582239     -571513.12     -572411.47      73126.519     -645537.99    
    251000   251000         0.31634108     0.30400326     348.85301      249.8742       98.978807      95.118473      298.35632      190.61249     -570372.5      -572524.2       72943.065     -645467.26    
    252000   252000         0.31642237     0.3482408      342.23158      255.7991       86.432477      95.123855      297.7249      -120.17719     -573685.69     -572329.09      72788.694     -645117.79    
    253000   253000         0.31618935     0.30540586     352.34359      253.86277      98.480821      95.122179      299.05509      38.865814     -571857        -572295.73      73113.904     -645409.63    
    254000   254000         0.31622128     0.33869875     343.46506      254.66526      88.799792      95.11181       298.05132     -153.41202     -574360.97     -572629.21      72868.499     -645497.7     
    255000   255000         0.31627834     0.33581637     341.78317      252.21009      89.573087      95.106449      297.90702     -406.98641     -577297.44     -572703.25      72833.219     -645536.47    
    256000   256000         0.31624903     0.33468699     343.82203      253.96256      89.859462      95.098453      297.54933     -387.287       -576828.28     -572456.46      72745.77      -645202.23    
    257000   257000         0.31619705     0.36553507     342.65941      260.40334      82.256071      95.090952      298.76169     -127.85048     -573855.32     -572412.1       73042.172     -645454.28    
    258000   258000         0.31602832     0.31444522     348.57178      253.00391      95.567877      95.089143      298.67803     -402.45532     -577082.64     -572539.6       73021.718     -645561.31    
    259000   259000         0.3161165      0.28322972     354.16342      248.03251      106.13091      95.089712      298.92141      90.470499     -571203.8      -572225.06      73081.22      -645306.28    
    260000   260000         0.31619443     0.29790377     352.04801      251.11401      100.93401      95.095353      299.33816     -172.15188     -574383.43     -572440.12      73183.11      -645623.23    
    261000   261000         0.31625353     0.30551486     350.07125      251.63546      98.435787      95.093312      298.85466     -130.79224     -574016.4      -572539.97      73064.901     -645604.88    
    262000   262000         0.31596246     0.330151       345.51755      254.50586      91.011696      95.098647      297.95586     -168.51251     -574454.2      -572551.98      72845.159     -645397.14    
    263000   263000         0.31621856     0.3272072      342.75197      250.85167      91.900304      95.093855      297.63673     -104.88978     -573850.71     -572666.68      72767.137     -645433.82    
    264000   264000         0.31677745     0.29447967     352.24148      249.95582      102.28567      95.085841      297.58998      341.31927     -568473.8      -572326.72      72755.708     -645082.43    
    265000   265000         0.31657192     0.3084025      343.95212      246.33946      97.612666      95.093686      297.32969      150.57952     -570862.6      -572562.39      72692.073     -645254.46    
    266000   266000         0.31637185     0.35598804     341.69565      257.18819      84.50746       95.089512      297.70482     -88.411507     -573689.84     -572691.82      72783.786     -645475.6     
    267000   267000         0.31629927     0.31803293     348.69406      254.13682      94.557231      95.075507      297.51609     -149.99105     -574274.78     -572581.63      72737.644     -645319.28    
    268000   268000         0.31658526     0.32488072     348.97458      256.3194       92.655181      95.083018      298.50879     -204.37772     -574877.4      -572570.32      72980.342     -645550.66    
    269000   269000         0.31676137     0.32920894     344.96637      253.47317      91.493199      95.08855       297.5382      -182.09594     -574612.79     -572557.23      72743.048     -645300.28    
    270000   270000         0.31689684     0.30207585     349.69225      249.92816      99.764085      95.098204      298.51307     -212.27052     -574998.21     -572602.03      72981.388     -645583.42    
    271000   271000         0.31725816     0.29359765     353.52898      250.76485      102.76413      95.100175      298.28139     -146.85615     -574175.93     -572518.17      72924.747     -645442.92    
    272000   272000         0.3169724      0.33263343     344.19599      253.56979      90.626197      95.103872      298.42697     -281.5832      -575553.4      -572374.8       72960.339     -645335.14    
    273000   273000         0.31706147     0.29784438     350.77756      249.53847      101.23909      95.102992      299.37158     -113.17814     -573610.04     -572332.45      73191.281     -645523.73    
    274000   274000         0.31689235     0.33957103     341.698        252.93931      88.758698      95.110791      298.16849      136.98217     -570656.04     -572202.34      72897.146     -645099.49    
    275000   275000         0.31688162     0.32331931     343.05493      249.83981      93.215125      95.108858      298.16026     -3.5766773     -572465.39     -572425.02      72895.132     -645320.15    
    276000   276000         0.31701657     0.30256353     352.07137      252.41958      99.651786      95.108583      298.18823     -135.32302     -573824.1      -572296.53      72901.972     -645198.5     
    277000   277000         0.3171831      0.3222383      349.49111      255.87329      93.617815      95.109877      297.84384     -337.62531     -576345.09     -572533.87      72817.773     -645351.64    
    278000   278000         0.31717737     0.31708348     348.7149       253.57442      95.140475      95.112311      298.0975      -180.43833     -574839.97     -572803.12      72879.789     -645682.91    
    279000   279000         0.31719782     0.36368006     337.03192      254.07939      82.952535      95.108418      298.3894      -278.45279     -575834.16     -572690.9       72951.154     -645642.05    
    280000   280000         0.31732084     0.28609154     351.59584      246.11165      105.48419      95.10291       297.61685     -152.18494     -574422.2      -572704.29      72762.278     -645466.57    
    281000   281000         0.31733895     0.33268746     343.73768      253.01956      90.718114      95.105814      297.7641      -105.26037     -573675.45     -572487.24      72798.277     -645285.52    
    282000   282000         0.31744615     0.30320819     346.16363      246.59306      99.570568      95.104672      296.80922     -52.000596     -573034.29     -572447.3       72564.826     -645012.12    
    283000   283000         0.31742355     0.33645271     340.9859       251.26177      89.724133      95.102986      298.03361      399.09496     -568006.38     -572511.49      72864.17      -645375.66    
    284000   284000         0.3176074      0.31067312     346.06308      248.83597      97.227104      95.104357      297.98208     -153.57834     -574237.54     -572503.9       72851.57      -645355.47    
    285000   285000         0.31779265     0.32290019     347.76532      254.17244      93.592883      95.097101      297.34078     -122.64362     -573995.83     -572611.39      72694.783     -645306.17    
    286000   286000         0.31757279     0.30669381     343.44278      244.96965      98.473138      95.099776      297.22921      54.001348     -572000.04     -572609.62      72667.508     -645277.13    
    287000   287000         0.3176236      0.32737567     346.66306      254.39528      92.267782      95.1007        298.84196     -271.15399     -575481.76     -572420.89      73061.798     -645482.69    
    288000   288000         0.31767477     0.33835253     341.26574      251.97141      89.294325      95.106581      298.27614     -157.59736     -574384.1      -572605.09      72923.464     -645528.56    
    289000   289000         0.31784509     0.35522437     336.86126      251.76419      85.097077      95.104679      298.38728     -158.76761     -574217.82     -572425.6       72950.636     -645376.24    
    290000   290000         0.31791757     0.30170775     350.40633      250.1899       100.21643      95.106648      299.03763      151.8888      -570514.17     -572228.74      73109.636     -645338.38    
    291000   291000         0.31763374     0.31891011     348.4043       253.67418      94.730115      95.110775      298.22912     -302.78507     -575432.22     -572014.28      72911.967     -644926.25    
    292000   292000         0.31753015     0.36194833     340.01834      256.58071      83.437622      95.109417      300.14456     -172.03561     -574121.13     -572179.14      73380.26      -645559.4     
    293000   293000         0.31775271     0.31843449     344.941        250.04032      94.900681      95.104304      298.33393      132.17882     -570612.24     -572104.32      72937.592     -645041.91    
    294000   294000         0.31737683     0.34781481     339.35721      252.5725       86.784708      95.107783      299.80749      11.490141     -571891.08     -572020.78      73297.853     -645318.64    
    295000   295000         0.31734211     0.30700496     348.21868      249.90728      98.311401      95.108993      298.73315      49.719719     -571751.89     -572313.14      73035.194     -645348.33    
    296000   296000         0.3176438      0.29074031     353.27264      249.35251      103.92013      95.118405      297.86637      359.06807     -568475.43     -572528.7       72823.28      -645351.99    
    297000   297000         0.3171446      0.33075621     343.89841      252.69347      91.204936      95.119385      296.57419     -23.882513     -573021.6      -572752.01      72507.366     -645259.38    
    298000   298000         0.31728986     0.29677362     349.29649      247.59356      101.70293      95.126723      297.27802     -642.71334     -580047.32     -572792.17      72679.441     -645471.61    
    299000   299000         0.31742571     0.32834209     347.78975      255.81589      91.973861      95.136875      297.7246       216.16135     -570108.89     -572548.99      72788.622     -645337.61    
    300000   300000         0.31773513     0.30001569     349.95189      249.19053      100.76136      95.142101      298.85337      133.58152     -570750.76     -572258.67      73064.586     -645323.26    
    301000   301000         0.31752962     0.29489241     351.02631      248.57342      102.45289      95.14885       299.24372     -241.18223     -574813.23     -572090.69      73160.02      -645250.71    
    302000   302000         0.31734066     0.31076956     344.88503      247.71835      97.16668       95.154672      298.86994     -272.66353     -575226.81     -572148.9       73068.636     -645217.54    
    303000   303000         0.31774716     0.31342622     349.4226       252.95774      96.464864      95.153069      299.34192      90.679015     -571463.94     -572487.55      73184.028     -645671.58    
    304000   304000         0.31737576     0.32349754     350.48379      257.1279       93.355899      95.156619      298.33092     -100.50942     -573398.92     -572264.34      72936.856     -645201.2     
    305000   305000         0.31766913     0.32328091     350.24983      256.74199      93.507834      95.159695      299.3394      -23.192702     -572483.54     -572221.73      73183.413     -645405.15    
    306000   306000         0.3174667      0.30382315     351.40263      251.97737      99.425255      95.15232       298.9634      -40.382944     -572764.52     -572308.67      73091.486     -645400.16    
    307000   307000         0.31785864     0.35132016     340.83761      254.74422      86.093392      95.156589      298.2554       104.5183      -571115.52     -572295.36      72918.393     -645213.75    
    308000   308000         0.3177933      0.32542421     348.4284       255.49997      92.928438      95.159851      299.78997      166.31328     -570461.87     -572339.27      73293.569     -645632.84    
    309000   309000         0.31751411     0.3352405      341.61624      251.49064      90.125599      95.15719       297.8897       139.5796      -571046.51     -572622.13      72828.984     -645451.12    
    310000   310000         0.31762605     0.28129218     352.7747       245.32566      107.44905      95.157738      299.06895     -0.89821414    -572298.14     -572288         73117.291     -645405.29    
    311000   311000         0.31746308     0.34907041     340.74267      254.19989      86.542777      95.159169      297.90387     -383.14596     -576902.33     -572577.26      72832.449     -645409.71    
    312000   312000         0.31730713     0.3287015      345.08011      253.22495      91.855152      95.153632      299.25568     -140.66001     -574129.71     -572541.89      73162.943     -645704.83    
    313000   313000         0.31733955     0.33474526     342.7787       252.57027      90.208438      95.156266      299.41137     -266.64315     -575374.61     -572364.66      73201.007     -645565.67    
    314000   314000         0.31736356     0.30251435     349.18206      249.3639       99.818161      95.147742      298.35508      147.53184     -570470.57     -572135.96      72942.762     -645078.72    
    315000   315000         0.31734795     0.3054151      349.96074      251.0996       98.861141      95.143785      298.82641     -249.80063     -575005.74     -572185.92      73057.994     -645243.91    
    316000   316000         0.31747268     0.31635157     348.26065      252.77483      95.485814      95.148617      300.09307     -153.07887     -573746.37     -572018.37      73367.672     -645386.04    
    317000   317000         0.31703593     0.32841198     345.64429      253.78964      91.854647      95.150622      299.33043      121.352       -570816.13     -572185.99      73181.218     -645367.21    
    318000   318000         0.31739975     0.30660826     350.3123       251.82129      98.491012      95.142348      299.46252     -27.498462     -572302.6      -571992.19      73213.514     -645205.7     
    319000   319000         0.31724642     0.31834036     345.80307      250.98125      94.821822      95.148789      299.17848      237.03375     -569351.29     -572027         73144.071     -645171.08    
    320000   320000         0.3172242      0.35866953     338.22293      254.06675      84.15618       95.151183      298.53869     -83.044364     -573180.03     -572242.6       72987.653     -645230.26    
    321000   321000         0.31763142     0.30870358     345.64681      247.75125      97.895567      95.143961      299.39699     -432.44387     -577116.09     -572234.52      73197.491     -645432.01    
[...]
    932000   932000         0.31535334     0.32927263     343.94703      252.70361      91.243422      95.270789      299.5164      -177.34196     -574304.63     -572302.73      73226.687     -645529.42    
    933000   933000         0.31535963     0.27373757     357.65471      247.89737      109.75734      95.271251      298.03799      285.39855     -569476.75     -572698.42      72865.24      -645563.66    
    934000   934000         0.3154419      0.28438202     352.06826      246.38965      105.67861      95.273001      298.94548     -33.705122     -572960.06     -572579.59      73087.105     -645666.69    
    935000   935000         0.31542588     0.35000265     340.53476      254.67224      85.862523      95.274715      298.6312      -302.01712     -575911.23     -572501.97      73010.27      -645512.24    
    936000   936000         0.31544845     0.28320532     355.32484      249.20472      106.12012      95.273198      299.20968     -189.27512     -574493.2      -572356.6       73151.699     -645508.3     
    937000   937000         0.31551672     0.29281723     351.97515      249.31861      102.65654      95.271031      297.98739      1.0842293     -572340.17     -572352.41      72852.868     -645205.27    
    938000   938000         0.31555571     0.29655909     351.95302      250.57581      101.37721      95.274251      298.69482      319.81417     -568947.88     -572558.05      73025.823     -645583.87    
    939000   939000         0.31546735     0.31618331     344.5606       249.50199      95.058612      95.274348      298.82407     -167.71467     -574523.14     -572629.92      73057.424     -645687.34    
    940000   940000         0.31544875     0.31559911     343.09453      247.86643      95.228102      95.273492      297.88223      9.8812749     -572499.6      -572611.14      72827.159     -645438.3     
    941000   941000         0.3154086      0.30900703     349.67391      252.42523      97.248675      95.274905      299.02942     -489.76233     -578011.45     -572482.86      73107.627     -645590.48    
    942000   942000         0.31541838     0.30218558     349.20711      249.75956      99.447552      95.275412      298.01503      329.57935     -569029.71     -572750.11      72859.626     -645609.73    
    943000   943000         0.31545377     0.31657141     344.26289      249.32618      94.936714      95.273072      297.51261     -282.63747     -575982.5      -572792         72736.794     -645528.8     
    944000   944000         0.31543765     0.33286043     340.24032      249.95361      90.286708      95.273575      298.23894     -66.537032     -573812.18     -573061.09      72914.369     -645975.46    
    945000   945000         0.31542407     0.33858694     345.21156      256.45903      88.752528      95.269985      297.63852     -155.25562     -574710.49     -572957.92      72767.576     -645725.49    
    946000   946000         0.31540073     0.32011678     344.98538      251.12046      93.864923      95.268444      298.387       -324.31419     -576637.87     -572976.91      72950.567     -645927.48    
    947000   947000         0.31547311     0.30511358     347.86656      249.36626      98.5003        95.265738      296.89014     -242.83862     -575805.27     -573064.03      72584.609     -645648.64    
    948000   948000         0.31556033     0.32053628     348.2623       254.47581      93.786488      95.265371      298.35206      15.030789     -572430.22     -572599.9       72942.025     -645541.92    
    949000   949000         0.31561983     0.28716788     353.45027      248.74669      104.70358      95.264943      297.85426     -452.68067     -577754.32     -572644.32      72820.32      -645464.64    
    950000   950000         0.31552286     0.3268458      344.94549      252.98197      91.963524      95.263752      299.41337      474.13878     -567050.59     -572402.82      73201.496     -645604.31    
    951000   951000         0.3155345      0.3045339      348.8393       250.13528      98.704021      95.262866      298.92829     -14.459954     -572802.2      -572638.98      73082.902     -645721.88    
    952000   952000         0.31549868     0.30982139     349.99605      252.98763      97.008427      95.262793      299.73399      52.863608     -572042.69     -572639.43      73279.884     -645919.31    
    953000   953000         0.31549768     0.31510923     351.57289      256.19583      95.377061      95.25963       297.93104      41.342058     -572108.96     -572575.64      72839.093     -645414.73    
    954000   954000         0.3154736      0.35343494     342.02014      256.99331      85.026829      95.258217      298.79299      491.6776      -567028.18     -572578.39      73049.824     -645628.21    
    955000   955000         0.31553772     0.30064793     351.28732      251.31164      99.975683      95.25797       298.67634      378.63233     -568431.93     -572706.05      73021.305     -645727.35    
    956000   956000         0.31549756     0.32383991     348.25474      255.45183      92.802909      95.256794      299.20404      61.919137     -571805.89     -572504.85      73150.32      -645655.17    
    957000   957000         0.31547791     0.31537157     345.06345      249.77825      95.285201      95.253083      298.36729      121.44435     -571360.25     -572731.15      72945.748     -645676.9     
    958000   958000         0.31552276     0.30864728     348.96474      251.58854      97.376208      95.254307      298.34638     -97.585178     -573988.55     -572886.98      72940.637     -645827.62    
    959000   959000         0.31559736     0.32924288     348.0419       256.73635      91.305551      95.253342      298.00328     -74.842632     -573451.78     -572606.93      72856.755     -645463.68    
    960000   960000         0.31557393     0.33128639     344.47056      253.73481      90.735743      95.253484      298.43885     -302.15653     -576005.87     -572595.04      72963.244     -645558.28    
    961000   961000         0.31551668     0.32671523     341.91483      249.92546      91.989369      95.254322      297.57441     -351.97046     -576597.18     -572624.03      72751.903     -645375.93    
    962000   962000         0.31553393     0.33209418     345.73515      255.23264      90.502506      95.252373      297.23141     -18.301042     -573095        -572888.41      72668.044     -645556.45    
    963000   963000         0.31557161     0.32570101     346.1899       253.90023      92.289676      95.252043      297.55034     -216.81181     -575282.08     -572834.64      72746.017     -645580.65    
    964000   964000         0.3155153      0.3381911      339.09489      250.22915      88.86574       95.252441      297.33537      302.21891     -569588.76     -573000.3       72693.461     -645693.76    
    965000   965000         0.31558066     0.32153529     346.84103      253.35348      93.487555      95.251553      298.57933      349.04955     -568890.57     -572830.75      72997.588     -645828.34    
    966000   966000         0.3155775      0.36068569     337.51419      254.17345      83.340735      95.253337      297.79372     -188.7584      -575451.87     -573321.11      72805.52      -646126.63    
    967000   967000         0.31551147     0.33955787     338.48041      249.97229      88.508115      95.253677      298.38743     -141.58168     -574810        -573211.78      72950.671     -646162.45    
    968000   968000         0.31543825     0.33165387     348.57872      257.98317      90.59555       95.252765      298.61595     -368.04799     -576989.54     -572834.9       73006.541     -645841.44    
    969000   969000         0.31547328     0.31236269     347.06399      250.86565      96.198338      95.249815      299.21982      154.81774     -570921.9      -572669.54      73154.177     -645823.71    
    970000   970000         0.31558385     0.32641542     346.82151      254.73354      92.087964      95.248636      299.93369      138.02971     -570765.83     -572323.95      73328.706     -645652.66    
    971000   971000         0.31561675     0.3104797      348.9087       252.08335      96.825355      95.249402      298.87283     -56.658103     -573132.22     -572492.65      73069.343     -645561.99    
    972000   972000         0.31550982     0.32589652     348.64081      256.4275       92.213307      95.249004      298.90589      103.48213     -571049.64     -572217.78      73077.427     -645295.21    
    973000   973000         0.31550712     0.29507099     349.36416      247.52069      101.84348      95.246838      298.42004     -263.11631     -575496.75     -572526.61      72958.644     -645485.25    
    974000   974000         0.31557861     0.29579309     352.60022      250.9821       101.61811      95.247063      299.15107     -297.69505     -575990.91     -572630.43      73137.369     -645767.8     
    975000   975000         0.31557093     0.33525526     342.58201      252.9267       89.655308      95.247726      298.55186     -470.13594     -577976.28     -572669.24      72990.872     -645660.11    
    976000   976000         0.31563741     0.30850699     349.7281       252.28154      97.446558      95.245187      298.92519      524.52679     -566720.47     -572641.49      73082.146     -645723.64    
    977000   977000         0.31568403     0.31810728     343.83679      249.31837      94.518412      95.243953      298.94782      43.690178     -571974.24     -572467.43      73087.678     -645555.11    
    978000   978000         0.31569594     0.34946486     343.19097      257.15081      86.040163      95.243586      298.86171      137.22257     -570908.17     -572457.18      73066.625     -645523.81    
    979000   979000         0.31560781     0.29081854     350.18525      246.82301      103.36224      95.243702      298.49216     -290.86959     -575902.49     -572619.07      72976.277     -645595.34    
    980000   980000         0.31566438     0.29581854     350.54972      248.91741      101.63231      95.24268       298.9389       172.49352     -570633.15     -572580.31      73085.496     -645665.81    
    981000   981000         0.31568039     0.30237077     350.35136      250.91758      99.433781      95.241485      298.54492     -123.75437     -573909.49     -572512.52      72989.175     -645501.69    
    982000   982000         0.31568755     0.30225578     349.68523      250.21285      99.472381      95.240062      298.59798     -305.3859      -576111.96     -572664.67      73002.148     -645666.82    
    983000   983000         0.31563884     0.29990098     349.34897      249.11055      100.23842      95.240499      297.85401     -152.83277     -574375.02     -572649.79      72820.259     -645470.05    
    984000   984000         0.3156794      0.35048924     339.6536       253.87356      85.780047      95.238981      298.40983      19.030709     -572425.88     -572640.71      72956.147     -645596.85    
    985000   985000         0.31567471     0.33926356     340.77853      252.15993      88.618603      95.240642      298.67262      54.54852      -571736.04     -572351.8       73020.397     -645372.19    
    986000   986000         0.31571097     0.31544971     346.20591      250.88853      95.317382      95.238503      299.78656     -535.41668     -578258.15     -572214.2       73292.735     -645506.93    
    987000   987000         0.31568063     0.30379499     352.33593      253.37289      98.963049      95.237009      299.80499     -138.11762     -573695.37     -572136.25      73297.241     -645433.5     
    988000   988000         0.31577976     0.30513148     351.05771      252.49447      98.563238      95.239625      298.49409     -86.839488     -572972.99     -571992.71      72976.749     -644969.46    
    989000   989000         0.31571686     0.33188241     341.14557      250.54396      90.601607      95.240653      298.82656     -85.178514     -573119.12     -572157.59      73058.033     -645215.63    
    990000   990000         0.31571798     0.33898152     350.89277      262.18705      88.705721      95.241961      299.64628      250.96482     -569444.21     -572277.18      73258.438     -645535.62    
    991000   991000         0.31578271     0.30828655     346.02454      248.46878      97.55576       95.239947      299.56031     -413.50815     -576985.95     -572318.14      73237.422     -645555.57    
    992000   992000         0.31569421     0.30586226     350.70661      252.40533      98.301277      95.239793      299.17292      387.55696     -568059.67     -572434.53      73142.71      -645577.24    
    993000   993000         0.31576696     0.30039657     346.32428      246.20982      100.11447      95.241256      297.91959      28.803343     -572101.03     -572426.17      72836.293     -645262.46    
    994000   994000         0.31569815     0.31653646     343.60609      248.61503      94.991055      95.243295      298.38542      37.084765     -571926.97     -572345.6       72950.181     -645295.78    
    995000   995000         0.31566083     0.29836294     352.57872      251.81605      100.76267      95.240977      299.10911     -120.63248     -573713.39     -572351.65      73127.109     -645478.76    
    996000   996000         0.3157009      0.30616731     349.97255      251.76808      98.204476      95.23888       298.38237     -213.45354     -575009.94     -572600.41      72949.436     -645549.85    
    997000   997000         0.31569532     0.31687726     346.7275       251.84417      94.883322      95.238559      297.61         273.89558     -569585.04     -572676.86      72760.604     -645437.47    
    998000   998000         0.31575611     0.28461184     349.44814      243.78706      105.66108      95.239305      298.19691     -215.70967     -575076.06     -572641.06      72904.094     -645545.16    
    999000   999000         0.31572482     0.30080138     353.33851      253.3722       99.966317      95.241188      299.50271     -51.622925     -572804.89     -572222.15      73223.339     -645445.49    
   1000000   1000000        0.31569027     0.31180935     344.1295       247.69911      96.430385      95.244924      298.70318     -287.2437      -575767.6      -572525.11      73027.867     -645552.97    
   1001000   1001000        0.31565902     0.34742209     342.63297      256.09659      86.536382      95.244073      299.21446      62.546373     -571641.54     -572347.58      73152.868     -645500.45    
   1002000   1002000        0.31576979     0.31618351     345.50756      250.39048      95.117077      95.241699      297.39971      11.426232     -572085        -572213.98      72709.192     -644923.17    
   1003000   1003000        0.31565197     0.33583075     346.09171      256.57114      89.520564      95.243373      299.5043       115.6014      -571118.1      -572423.05      73223.727     -645646.78    
   1004000   1004000        0.3156586      0.31833897     348.53302      254.09172      94.441304      95.243238      299.09237      87.894155     -571687.1      -572679.27      73123.017     -645802.29    
   1005000   1005000        0.3157708      0.31097622     351.98415      255.27581      96.708339      95.239946      298.63825     -178.99885     -574550.33     -572529.74      73011.994     -645541.73    
   1006000   1006000        0.31570947     0.2917682      353.13866      250.08396      103.05469      95.239722      299.84416     -163.69492     -574273.71     -572425.87      73306.817     -645732.69    
   1007000   1007000        0.31576673     0.29549281     353.84934      252.07395      101.77538      95.240855      299.31954      215.95788     -569686.19     -572123.99      73178.556     -645302.55    
   1008000   1008000        0.31578128     0.31147066     353.21246      256.6529       96.559561      95.241461      300.37238     -320.67179     -575620.54     -572000.7       73435.958     -645436.66    
   1009000   1009000        0.31574835     0.33950903     343.82857      255.25229      88.576281      95.241818      299.24888     -238.53794     -575084.89     -572392.2       73161.282     -645553.48    
   1010000   1010000        0.31574359     0.31533927     345.7439       250.37982      95.364079      95.241963      298.67025     -379.2429      -576732.12     -572451.1       73019.816     -645470.92    
   1011000   1011000        0.3157995      0.29815263     350.15942      249.27851      100.88091      95.243688      299.54627      195.02466     -570024.66     -572226.16      73233.988     -645460.15    
   1012000   1012000        0.31570932     0.34111323     340.11245      251.95874      88.153717      95.247107      298.26255     -303.09271     -575738.98     -572317.57      72920.141     -645237.71    
   1013000   1013000        0.31565672     0.3114231      345.3513       248.80817      96.543133      95.248287      299.52335     -535.69771     -578032.13     -571985         73228.386     -645213.39    
   1014000   1014000        0.31561753     0.31733947     347.67909      252.94943      94.729665      95.246489      299.57556     -169.61229     -573836.27     -571921.63      73241.149     -645162.78    
   1015000   1015000        0.31573976     0.29735023     353.23988      252.10262      101.13725      95.24675       301.18668     -298.94572     -575049.4      -571674.81      73635.041     -645309.85    
   1016000   1016000        0.3157164      0.29660492     354.45608      253.07112      101.38495      95.247748      300.50232     -32.732509     -572054.47     -571684.98      73467.726     -645152.71    
   1017000   1017000        0.31568725     0.32250564     350.0854       256.84984      93.23556       95.249315      300.28157     -8.7649696     -572104.06     -572005.11      73413.758     -645418.87    
   1018000   1018000        0.31567994     0.33989155     341.56128      253.09794      88.463337      95.248182      299.77344     -115.90365     -573503.18     -572194.82      73289.529     -645484.35    
   1019000   1019000        0.31570921     0.32039269     343.74212      249.8876       93.854517      95.246828      299.48384      117.68524     -571049.19     -572377.66      73218.725     -645596.38    
   1020000   1020000        0.31579875     0.31219439     349.207        252.86011      96.346895      95.247242      299.60022     -129.28997     -573903.75     -572444.28      73247.177     -645691.46    
   1021000   1021000        0.31577956     0.27170027     361.26737      250.56687      110.70051      95.247956      299.16252     -200.43639     -574405.14     -572142.55      73140.169     -645282.72    
Loop time of 44405.9 on 32 procs for 1000000 steps with 82020 atoms

Performance: 1.946 ns/day, 12.335 hours/ns, 22.520 timesteps/s, 1.847 Matom-step/s
99.6% CPU use with 32 MPI tasks x 1 OpenMP threads

MPI task timing breakdown:
Section |  min time  |  avg time  |  max time  |%varavg| %total
---------------------------------------------------------------
Pair    | 23695      | 27094      | 32212      |1220.2 | 61.01
Bond    | 603.88     | 669.43     | 776.37     | 154.4 |  1.51
Kspace  | 7247.2     | 12420      | 15843      |1816.9 | 27.97
Neigh   | 2698.9     | 2704.7     | 2710.3     |   5.7 |  6.09
Comm    | 726.03     | 810.7      | 913.49     | 185.1 |  1.83
Output  | 0.19467    | 0.20395    | 0.3903     |   7.4 |  0.00
Modify  | 584.01     | 631.83     | 682.13     | 109.9 |  1.42
Other   |            | 74.27      |            |       |  0.17

Nlocal:        2563.12 ave        2722 max        2414 min
Histogram: 2 1 5 7 4 4 1 2 2 4
Nghost:        17323.5 ave       18221 max       16799 min
Histogram: 7 10 3 0 2 2 0 3 1 4
Neighs:    1.56167e+06 ave 1.79242e+06 max 1.42084e+06 min
Histogram: 3 6 6 5 4 2 2 0 0 4

Total # of neighbors = 49973467
Ave neighs/atom = 609.28392
Ave special neighs/atom = 10.922214
Neighbor list builds = 52453
Dangerous builds = 0
Total wall time: 12:35:00
