units real
atom_style full
boundary p p p

# styles
pair_style lj/charmm/coul/long 8.0 12.0
kspace_style pppm 1e-6
dielectric 1.000000
bond_style harmonic
angle_style harmonic
dihedral_style fourier
improper_style cvff
special_bonds amber
pair_modify mix arithmetic
neighbor 2.0 bin
neigh_modify delay 0 every 1 check yes

# system definition
read_data ../final.data
Reading data file ...
  orthogonal box = (-25.800016 -24.079824 -155.73635) to (25.800016 24.079824 155.73635)
  2 by 2 by 8 MPI processor grid
  reading atoms ...
  82020 atoms
  reading velocities ...
  82020 velocities
  scanning bonds ...
  4 = max bonds/atom
  scanning angles ...
  6 = max angles/atom
  scanning dihedrals ...
  15 = max dihedrals/atom
  scanning impropers ...
  1 = max impropers/atom
  reading bonds ...
  84010 bonds
  reading angles ...
  150000 angles
  reading dihedrals ...
  219910 dihedrals
  reading impropers ...
  6000 impropers
Finding 1-2 1-3 1-4 neighbors ...
  special bond factors lj:    0        0        0.5     
  special bond factors coul:  0        0        0.8333333333333334
     4 = max # of 1-2 neighbors
    11 = max # of 1-3 neighbors
    22 = max # of 1-4 neighbors
    26 = max # of special neighbors
  special bonds CPU = 0.082 seconds
  read_data CPU = 1.994 seconds
# do not reset velocities

# vars
variable dt equal 1.0
variable tLog equal 1000
variable nEvery equal 10
variable nRepeat equal 100
variable boolDump equal 0
variable tDump equal 1000

variable tPreeq equal 10000
variable tPrerun equal 10000
variable tDelay equal 1000
variable tTCrun equal 1000000

# desiered temperature difference
variable Tavg equal 300.0
variable TempDiff equal 100.0
variable Thi equal ${Tavg}+(${TempDiff}/2)
variable Thi equal 300+(${TempDiff}/2)
variable Thi equal 300+(100/2)
variable Tlo equal ${Tavg}-(${TempDiff}/2)
variable Tlo equal 300-(${TempDiff}/2)
variable Tlo equal 300-(100/2)

# defining regions
variable hot_lo equal (lz*0)+zlo
variable hot_hi equal (lz*0.05)+zlo
variable cold_lo equal (lz*0.50)+zlo
variable cold_hi equal (lz*0.55)+zlo

# define heating and cooling block regions
region hot block INF INF INF INF ${hot_lo} ${hot_hi} units box
region hot block INF INF INF INF -155.73634716013 ${hot_hi} units box
region hot block INF INF INF INF -155.73634716013 -140.162712444117 units box
region cold block INF INF INF INF ${cold_lo} ${cold_hi} units box
region cold block INF INF INF INF 0 ${cold_hi} units box
region cold block INF INF INF INF 0 15.5736347160131 units box
compute Thot all temp/region hot
compute Tcold all temp/region cold

# STEP 1 - 1st equilibration (nve)
# 1a - thermo output for md1
thermo_style custom step time temp c_Thot c_Tcold press enthalpy etotal ke pe
thermo_modify colname c_Thot Temp_hot colname c_Tcold Temp_cold
thermo_modify flush yes
thermo ${tLog}
thermo 1000

# 1b - nve equilibration
timestep ${dt}
timestep 1
fix md1 all nve
run ${tPreeq}
run 10000
PPPM initialization ...
  using 12-bit tables for long-range coulomb (src/kspace.cpp:342)
  G vector (1/distance) = 0.27316341
  grid = 60 60 225
  stencil order = 5
  estimated absolute RMS force accuracy = 0.00037618852
  estimated relative force accuracy = 1.1328806e-06
  using double precision FFTW3
  3d grid and FFT values/proc = 47915 28800
Generated 120 of 120 mixed pair_coeff terms from arithmetic mixing rule
Neighbor list info ...
  update: every = 1 steps, delay = 0 steps, check = yes
  max neighbors/atom: 2000, page size: 100000
  master list distance cutoff = 14
  ghost atom cutoff = 14
  binsize = 7, bins = 8 7 45
  1 neighbor lists, perpetual/occasional/extra = 1 0 0
  (1) pair lj/charmm/coul/long, perpetual
      attributes: half, newton on
      pair build: half/bin/newton
      stencil: half/bin/3d
      bin: standard
Per MPI rank memory allocation (min/avg/max) = 39.81 | 40.44 | 41.45 Mbytes
   Step          Time           Temp         Temp_hot      Temp_cold        Press         Enthalpy        TotEng         KinEng         PotEng    
         0   0              300.41615      305.37885      302.77145      42.831017     -571123.67     -571607.16      73446.659     -645053.82    
      1000   1000           299.49981      305.5907       296.60178      1.2905042     -571587.4      -571601.97      73222.629     -644824.6     
      2000   2000           300.56516      307.2171       304.96085     -464.25997     -576854.99     -571614.28      73483.09      -645097.37    
      3000   3000           300.4289       305.85209      297.03768     -11.421934     -571729.31     -571600.38      73449.777     -645050.15    
      4000   4000           300.33842      306.51433      298.05931     -42.000571     -572077.46     -571603.35      73427.657     -645031.01    
      5000   5000           300.34401      308.81393      301.26498      15.245438     -571436.74     -571608.83      73429.022     -645037.85    
      6000   6000           299.37306      299.47992      296.38903     -285.02193     -574806.31     -571588.89      73191.642     -644780.54    
      7000   7000           300.51432      303.27302      307.14617      181.1694      -569556.51     -571601.61      73470.661     -645072.27    
      8000   8000           299.59566      306.24484      302.55459      97.488514     -570490.78     -571591.26      73246.063     -644837.32    
      9000   9000           299.65547      299.6656       306.6323       183.10649     -569527.58     -571594.54      73260.686     -644855.23    
     10000   10000          300.62632      304.80019      298.82967     -125.15272     -573017.01     -571604.25      73498.043     -645102.29    
Loop time of 441.652 on 32 procs for 10000 steps with 82020 atoms

Performance: 1.956 ns/day, 12.268 hours/ns, 22.642 timesteps/s, 1.857 Matom-step/s
99.5% CPU use with 32 MPI tasks x 1 OpenMP threads

MPI task timing breakdown:
Section |  min time  |  avg time  |  max time  |%varavg| %total
---------------------------------------------------------------
Pair    | 236.42     | 280.7      | 328.84     | 166.4 | 63.56
Bond    | 5.9753     | 6.929      | 8.1702     |  24.0 |  1.57
Kspace  | 67.358     | 116.54     | 161.41     | 262.3 | 26.39
Neigh   | 27.052     | 27.132     | 27.211     |   0.8 |  6.14
Comm    | 7.0297     | 8.2093     | 9.3195     |  20.8 |  1.86
Output  | 0.0016933  | 0.0021417  | 0.0051081  |   1.3 |  0.00
Modify  | 0.19338    | 0.26076    | 0.32116    |   7.1 |  0.06
Other   |            | 1.882      |            |       |  0.43

Nlocal:        2563.12 ave        2718 max        2410 min
Histogram: 1 4 4 3 6 4 1 3 4 2
Nghost:        17320.7 ave       18197 max       16810 min
Histogram: 8 6 5 1 2 2 0 0 4 4
Neighs:    1.56168e+06 ave 1.78154e+06 max 1.41866e+06 min
Histogram: 3 3 9 3 5 2 3 0 2 2

Total # of neighbors = 49973640
Ave neighs/atom = 609.28603
Ave special neighs/atom = 10.922214
Neighbor list builds = 518
Dangerous builds = 0
unfix md1

# STEP 2 - pre run
# 2a - impose nve
fix md2 all nve

# 2b - impose thermostating
fix hot all langevin ${Thi} ${Thi} 100.0 57485 tally yes
fix hot all langevin 350 ${Thi} 100.0 57485 tally yes
fix hot all langevin 350 350 100.0 57485 tally yes
fix cold all langevin ${Tlo} ${Tlo} 100.0 12490 tally yes
fix cold all langevin 250 ${Tlo} 100.0 12490 tally yes
fix cold all langevin 250 250 100.0 12490 tally yes
fix_modify hot temp Thot
fix_modify cold temp Tcold
# calculate tdiff of regions
variable tdiff equal c_Thot-c_Tcold

# 2c - thermo output
thermo_style custom step time temp c_Thot c_Tcold f_hot f_cold v_tdiff press enthalpy etotal ke pe
WARNING: New thermo_style command, previous thermo_modify settings will be lost (src/output.cpp:904)
thermo_modify colname c_Thot Temp_hot colname c_Tcold Temp_cold               colname f_hot E_hot colname f_cold E_cold               colname v_tdiff dTemp_step
thermo_modify flush yes
thermo ${tLog}
thermo 1000

# 2d - pre run
run ${tPrerun}
run 10000
PPPM initialization ...
  using 12-bit tables for long-range coulomb (src/kspace.cpp:342)
  G vector (1/distance) = 0.27316341
  grid = 60 60 225
  stencil order = 5
  estimated absolute RMS force accuracy = 0.00037618852
  estimated relative force accuracy = 1.1328806e-06
  using double precision FFTW3
  3d grid and FFT values/proc = 47915 28800
Generated 120 of 120 mixed pair_coeff terms from arithmetic mixing rule
Per MPI rank memory allocation (min/avg/max) = 41.41 | 42.07 | 42.95 Mbytes
   Step          Time           Temp         Temp_hot      Temp_cold        E_hot          E_cold       dTemp_step       Press         Enthalpy        TotEng         KinEng         PotEng    
     10000   10000          300.62632      304.60261      298.82967     -0             -0              5.7729413     -125.15272     -573017.01     -571604.25      73498.043     -645102.29    
     11000   11000          300.25512      351.42775      250.03662     -1510.4598      1832.7007      101.39113      44.018493     -571425.51     -571922.4       73407.29      -645329.69    
     12000   12000          298.79956      355.10616      244.088       -1701.4867      2207.2412      111.01817     -193.36013     -574285.55     -572102.84      73051.431     -645154.27    
     13000   13000          298.63209      347.12119      247.79576     -1779.0114      2401.3194      99.325437     -60.789545     -572889.06     -572202.85      73010.487     -645213.33    
     14000   14000          300.10036      347.22902      250.04204     -1815.6497      2469.126       97.186978      135.03745     -570725.5      -572249.85      73369.455     -645619.3     
     15000   15000          299.1714       353.34117      248.13682     -2268.3113      2713.7956      105.20435      434.26432     -567114.85     -572016.96      73142.34      -645159.3     
     16000   16000          299.16142      345.949        254.74927     -2000.6711      2741.1145      91.199725     -27.378305     -572622.42     -572313.37      73139.9       -645453.27    
     17000   17000          297.69495      350.42222      247.55913     -2119.567       2982.8315      102.86309     -277.76147     -575548.87     -572413.41      72781.371     -645194.78    
     18000   18000          299.2526       351.00145      253.52783     -2240.6997      3157.6636      97.473615      13.190788     -572320.39     -572469.29      73162.192     -645631.48    
     19000   19000          298.07864      346.93146      248.96003     -2269.7368      3156.445       97.971432      39.815481     -571988.37     -572437.82      72875.178     -645312.99    
     20000   20000          298.14731      352.93695      248.44978     -2393.9921      3269.9716      104.48717      91.541317     -571386.64     -572419.99      72891.967     -645311.95    
Loop time of 451.657 on 32 procs for 10000 steps with 82020 atoms

Performance: 1.913 ns/day, 12.546 hours/ns, 22.141 timesteps/s, 1.816 Matom-step/s
99.5% CPU use with 32 MPI tasks x 1 OpenMP threads

MPI task timing breakdown:
Section |  min time  |  avg time  |  max time  |%varavg| %total
---------------------------------------------------------------
Pair    | 234.71     | 282.61     | 333.31     | 176.2 | 62.57
Bond    | 5.9501     | 6.9707     | 8.1501     |  25.3 |  1.54
Kspace  | 68.734     | 119.81     | 168.25     | 273.6 | 26.53
Neigh   | 27.115     | 27.161     | 27.225     |   0.6 |  6.01
Comm    | 7.0014     | 8.1522     | 9.2258     |  21.8 |  1.80
Output  | 0.0018198  | 0.0022145  | 0.0044349  |   1.0 |  0.00
Modify  | 5.2647     | 6.147      | 6.9205     |  19.6 |  1.36
Other   |            | 0.798      |            |       |  0.18

Nlocal:        2563.12 ave        2729 max        2432 min
Histogram: 4 4 4 4 4 3 2 2 2 3
Nghost:        17335.2 ave       18240 max       16710 min
Histogram: 5 5 7 2 2 3 0 0 4 4
Neighs:    1.56163e+06 ave 1.79178e+06 max 1.39403e+06 min
Histogram: 1 5 7 4 5 3 3 0 1 3

Total # of neighbors = 49972029
Ave neighs/atom = 609.26639
Ave special neighs/atom = 10.922214
Neighbor list builds = 517
Dangerous builds = 0
unfix md2

# STEP 3 - md for tc caluclation
# 3a - impose nve
fix md3 all nve

# 3b - calculate and output thermal profile
compute ke all ke/atom
variable temp atom c_ke/(1.5*0.001987204)
compute layers all chunk/atom bin/1d z lower 0.05 units reduced
fix bins all ave/chunk ${nEvery} ${nRepeat} ${tLog} layers v_temp file Tprofile_z_lav.dat
fix bins all ave/chunk 10 ${nRepeat} ${tLog} layers v_temp file Tprofile_z_lav.dat
fix bins all ave/chunk 10 100 ${tLog} layers v_temp file Tprofile_z_lav.dat
fix bins all ave/chunk 10 100 1000 layers v_temp file Tprofile_z_lav.dat

# 3c - reset thermostats to zero energy accumulation
fix hot all langevin ${Thi} ${Thi} 100.0 57485 tally yes
fix hot all langevin 350 ${Thi} 100.0 57485 tally yes
fix hot all langevin 350 350 100.0 57485 tally yes
fix cold all langevin ${Tlo} ${Tlo} 100.0 12490 tally yes
fix cold all langevin 250 ${Tlo} 100.0 12490 tally yes
fix cold all langevin 250 250 100.0 12490 tally yes
fix_modify hot temp Thot
fix_modify cold temp Tcold

# 3c - compute average tdiff
fix ave all ave/time ${nEvery} ${nRepeat} ${tLog} v_tdiff ave running
fix ave all ave/time 10 ${nRepeat} ${tLog} v_tdiff ave running
fix ave all ave/time 10 100 ${tLog} v_tdiff ave running
fix ave all ave/time 10 100 1000 v_tdiff ave running

# 3d - time delay run
variable aTime equal time
variable start_time equal ${aTime}
variable start_time equal 20000
run ${tDelay}
run 1000
PPPM initialization ...
  using 12-bit tables for long-range coulomb (src/kspace.cpp:342)
  G vector (1/distance) = 0.27316341
  grid = 60 60 225
  stencil order = 5
  estimated absolute RMS force accuracy = 0.00037618852
  estimated relative force accuracy = 1.1328806e-06
  using double precision FFTW3
  3d grid and FFT values/proc = 47915 28800
Generated 120 of 120 mixed pair_coeff terms from arithmetic mixing rule
Per MPI rank memory allocation (min/avg/max) = 41.91 | 42.59 | 43.45 Mbytes
   Step          Time           Temp         Temp_hot      Temp_cold        E_hot          E_cold       dTemp_step       Press         Enthalpy        TotEng         KinEng         PotEng    
     20000   20000          298.14731      353.08565      248.44978     -0             -0              104.63587      91.541317     -571386.64     -572419.99      72891.967     -645311.95    
     21000   21000          298.0479       352.13705      250.06701     -17.093895      138.38904      102.07003     -314.85337     -576078.38     -572524.21      72867.662     -645391.87    
Loop time of 45.1051 on 32 procs for 1000 steps with 82020 atoms

Performance: 1.916 ns/day, 12.529 hours/ns, 22.170 timesteps/s, 1.818 Matom-step/s
99.5% CPU use with 32 MPI tasks x 1 OpenMP threads

MPI task timing breakdown:
Section |  min time  |  avg time  |  max time  |%varavg| %total
---------------------------------------------------------------
Pair    | 23.433     | 28.257     | 33.307     |  56.3 | 62.65
Bond    | 0.59647    | 0.69643    | 0.81883    |   8.1 |  1.54
Kspace  | 6.7755     | 11.908     | 16.771     |  87.7 | 26.40
Neigh   | 2.7205     | 2.7293     | 2.7357     |   0.2 |  6.05
Comm    | 0.70747    | 0.81315    | 0.92597    |   6.9 |  1.80
Output  | 0.00013632 | 0.00014247 | 0.00029696 |   0.0 |  0.00
Modify  | 0.53849    | 0.62408    | 0.71096    |   6.4 |  1.38
Other   |            | 0.07687    |            |       |  0.17

Nlocal:        2563.12 ave        2729 max        2419 min
Histogram: 2 4 4 6 3 4 1 2 4 2
Nghost:        17328.6 ave       18243 max       16795 min
Histogram: 9 6 4 1 1 3 0 1 3 4
Neighs:     1.5617e+06 ave 1.78634e+06 max 1.39872e+06 min
Histogram: 1 4 9 4 5 1 4 0 0 4

Total # of neighbors = 49974528
Ave neighs/atom = 609.29685
Ave special neighs/atom = 10.922214
Neighbor list builds = 52
Dangerous builds = 0

# 3f - calculate kappa
variable kappa_inst equal (0.5*(abs(f_hot)+abs(f_cold))/(time-${start_time})/(lx*ly)/2.0)*(lz/2.0)/v_tdiff*69478.5785
variable kappa_inst equal (0.5*(abs(f_hot)+abs(f_cold))/(time-20000)/(lx*ly)/2.0)*(lz/2.0)/v_tdiff*69478.5785
variable kappa equal (0.5*(abs(f_hot)+abs(f_cold))/(time-${start_time})/(lx*ly)/2.0)*(lz/2.0)/f_ave*69478.5785
variable kappa equal (0.5*(abs(f_hot)+abs(f_cold))/(time-20000)/(lx*ly)/2.0)*(lz/2.0)/f_ave*69478.5785

# 3e - thermo out
# dump dump_tc all custom 1000 dump.tc_x_ehex.lammpstrj id type mol x y z ix iy iz vx vy vz
thermo_style custom step time v_kappa v_kappa_inst c_Thot c_Tcold v_tdiff f_ave temp press enthalpy etotal ke pe
WARNING: New thermo_style command, previous thermo_modify settings will be lost (src/output.cpp:904)
thermo_modify colname v_kappa kappa colname v_kappa_inst kappa_inst               colname c_Thot Temp_hot colname c_Tcold Temp_cold               colname v_tdiff dTemp_step colname f_ave dTemp
thermo_modify flush yes
thermo ${tLog}
thermo 1000

# 2g - md run for kappa calculation
# optional traj dump
if "${boolDump} == 1" then     "dump tc_dump all atom ${tDump} dump.tc_z.lammpstrj"
run ${tTCrun}
run 1000000
PPPM initialization ...
  using 12-bit tables for long-range coulomb (src/kspace.cpp:342)
  G vector (1/distance) = 0.27316341
  grid = 60 60 225
  stencil order = 5
  estimated absolute RMS force accuracy = 0.00037618852
  estimated relative force accuracy = 1.1328806e-06
  using double precision FFTW3
  3d grid and FFT values/proc = 47915 28800
Generated 120 of 120 mixed pair_coeff terms from arithmetic mixing rule
Per MPI rank memory allocation (min/avg/max) = 42.41 | 43.09 | 43.96 Mbytes
   Step          Time          kappa        kappa_inst      Temp_hot      Temp_cold      dTemp_step       dTemp           Temp          Press         Enthalpy        TotEng         KinEng         PotEng    
     21000   21000          0              0              352.18982      250.06701      102.1228       98.405328      298.0479      -314.85337     -576078.38     -572524.21      72867.662     -645391.87    
     22000   22000          1.4188122      1.5949779      339.57865      252.13417      87.444473      98.301948      297.70743      214.27827     -570357.7      -572776.55      72784.424     -645560.97    
     23000   23000          1.7630942      1.5986788      358.12242      249.19789      108.92453      98.766896      297.97467      290.57569     -569259.64     -572539.75      72849.759     -645389.51    
     24000   24000          0.53576917     0.58333089     339.58872      248.85739      90.731325      98.785798      296.96102      235.46371     -570012.23     -572670.22      72601.938     -645272.16    
     25000   25000          0.82240779     0.87348971     340.96762      248.64553      92.322084      98.056453      297.28989      57.941472     -572163.73     -572817.79      72682.343     -645500.13    
     26000   26000          1.3621437      1.2327954      355.32545      247.33113      107.99432      97.739252      297.68837     -60.590487     -573263.34     -572579.37      72779.764     -645359.14    
     27000   27000          1.4543538      1.560246       345.11705      253.57627      91.540775      98.205905      297.10374     -141.03325     -574044.69     -572452.67      72636.832     -645089.5     
     28000   28000          1.271238       1.2847783      353.7958       256.51201      97.283781      98.319977      298.03685     -285.04527     -575821.52     -572603.84      72864.961     -645468.8     
     29000   29000          1.5508927      1.5468074      350.00522      251.45242      98.552796      98.293194      297.8255      -124.61016     -574076.5      -572669.86      72813.289     -645483.15    
     30000   30000          1.5258181      1.5767125      346.6063       251.68904      94.91726       98.083267      297.99138     -152.41553     -574402.79     -572682.28      72853.845     -645536.13    
     31000   31000          1.5421066      1.5005261      348.56198      247.66124      100.90073      98.180104      297.76944      257.13735     -569758.83     -572661.48      72799.584     -645461.06    
     32000   32000          1.5254527      1.4720114      350.16523      248.10976      102.05547      98.480152      297.75572      253.57414     -569853.82     -572716.25      72796.23      -645512.48    
     33000   33000          1.4803622      1.4162584      349.70292      246.56262      103.1403       98.674038      297.41306     -36.326556     -573246.82     -572836.75      72712.456     -645549.21    
     34000   34000          1.4804551      1.3950385      346.72309      241.91164      104.81146      98.764236      297.6052      -91.115293     -573898.3      -572869.76      72759.43      -645629.19    
     35000   35000          1.3861226      1.4100498      346.13678      248.90975      97.227022      98.90535       297.19909      258.73464     -569869.92     -572790.59      72660.144     -645450.74    
     36000   36000          1.3469131      1.4364684      346.64244      253.91887      92.723572      98.8887        297.10299      165.17454     -570953.52     -572818.07      72636.648     -645454.71    
     37000   37000          1.5122336      1.3802646      355.75007      247.25555      108.49452      99.026464      297.61353     -280.41737     -575835.26     -572669.82      72761.466     -645431.29    
     38000   38000          1.454426       1.4403171      346.58102      246.53002      100.051        99.080431      298.24608      132.61348     -571353.77     -572850.75      72916.115     -645766.86    
     39000   39000          1.3098521      1.3008634      350.38085      250.61972      99.761125      99.076527      296.20147      207.99181     -570648.59     -572996.46      72416.242     -645412.71    
     40000   40000          1.2848372      1.3456631      347.78723      253.16904      94.618194      99.097545      297.07804      384.21911     -568695.45     -573032.64      72630.549     -645663.19    
     41000   41000          1.3004313      1.2360839      351.82119      247.64878      104.17241      99.017793      297.3021      -311.2222      -576549.75     -573036.57      72685.326     -645721.9     
     42000   42000          1.3441366      1.3629438      347.68588      250.0136       97.672275      99.038913      296.50192     -142.22416     -574834.98     -573229.5       72489.697     -645719.2     
     43000   43000          1.380294       1.35139        347.66396      246.52159      101.14238      99.024413      296.25554      11.934171     -572962.69     -573097.41      72429.462     -645526.87    
     44000   44000          1.3615512      1.3308851      353.13976      251.82443      101.31533      99.033412      297.39559      139.87042     -571447.06     -573025.96      72708.184     -645734.14    
     45000   45000          1.3940784      1.2395775      359.94502      248.4431       111.50192      99.144554      297.2201       156.78082     -571254.8      -573024.59      72665.28      -645689.87    
     46000   46000          1.3338743      1.3544055      350.70278      253.06144      97.641337      99.144247      296.93312     -15.555028     -573305.82     -573130.23      72595.118     -645725.35    
     47000   47000          1.3203608      1.2805538      349.49855      247.28298      102.21557      99.133917      297.14034      210.59734     -570862.29     -573239.58      72645.78      -645885.36    
     48000   48000          1.2713609      1.3238236      348.58418      253.30298      95.281201      99.212982      297.02199      161.37859     -571320.99     -573142.68      72616.844     -645759.52    
     49000   49000          1.2193781      1.2453258      346.61143      249.41602      97.19541       99.263675      295.64294     -183.73189     -575445.64     -573371.62      72279.692     -645651.31    
     50000   50000          1.1966969      1.1306961      352.75006      247.73676      105.0133       99.221553      296.53902      50.594414     -572586.61     -573157.73      72498.768     -645656.5     
     51000   51000          1.2522539      1.198666       353.95388      250.25618      103.69769      99.260137      296.41831      639.87848     -565806.92     -573030.07      72469.255     -645499.33    
     52000   52000          1.2392417      1.118834       358.24943      248.11228      110.13715      99.435968      296.46404     -108.22316     -574477.59     -573255.94      72480.436     -645736.37    
     53000   53000          1.1682543      1.1831098      348.46366      250.25406      98.209594      99.45843       296.40423      405.16002     -568732.73     -573306.3       72465.813     -645772.12    
     54000   54000          1.189592       1.2148158      341.98128      244.59906      97.382227      99.44709       295.8283      -252.76519     -576039.51     -573186.21      72325.008     -645511.22    
     55000   55000          1.2494944      1.2427178      347.24794      247.20285      100.04509      99.502505      296.37076      22.652128     -572902.7      -573158.4       72457.63      -645616.03    
     56000   56000          1.2808168      1.2392514      349.98386      247.15157      102.83229      99.495148      297.43621     -234.10149     -575732.09     -573089.48      72718.115     -645807.6     
     57000   57000          1.2218796      1.1545149      355.00871      249.72088      105.28783      99.483101      296.3228       308.70986     -569636.03     -573120.84      72445.905     -645566.75    
     58000   58000          1.173964       1.1716039      345.659        245.99626      99.662739      99.462378      297.21031     -52.100421     -573857.57     -573269.44      72662.886     -645932.33    
     59000   59000          1.1256704      1.1868187      344.07811      249.78745      94.290661      99.412689      297.01435     -271.20227     -576096.59     -573035.17      72614.976     -645650.15    
     60000   60000          1.212214       1.1584629      349.04318      245.08837      103.9548       99.345316      297.02543      0.73046283    -573426.02     -573434.27      72617.685     -646051.95    
     61000   61000          1.1923849      1.2518808      349.85924      255.24487      94.614364      99.335295      296.3558       176.52458     -571191.91     -573184.58      72453.973     -645638.55    
     62000   62000          1.1701687      1.1813035      349.84452      251.51521      98.32931       99.264973      296.22704     -20.489147     -573343.65     -573112.36      72422.493     -645534.85    
     63000   63000          1.2310782      1.1480845      353.89764      247.41386      106.48378      99.305127      296.67965     -186.09301     -575291.17     -573190.49      72533.149     -645723.64    
     64000   64000          1.179477       1.1887539      350.89983      252.34825      98.551574      99.326705      297.11453      306.16503     -569694.65     -573150.74      72639.47      -645790.21    
     65000   65000          1.1912306      1.1564499      351.90352      249.58026      102.32326      99.335688      296.82664     -229.48859     -575777.04     -573186.5       72569.086     -645755.58    
     66000   66000          1.221327       1.1246985      350.57829      242.69085      107.88744      99.351642      296.58364      338.98774     -569557.76     -573384.37      72509.675     -645894.04    
     67000   67000          1.1760777      1.241339       349.2983       255.17394      94.124356      99.347382      296.69059     -118.75356     -574559.66     -573219.14      72535.824     -645754.96    
     68000   68000          1.1465833      1.1384829      352.51841      252.43537      100.08304      99.375973      296.74342     -24.381941     -573605.42     -573330.19      72548.739     -645878.92    
     69000   69000          1.1498714      1.1267539      351.30286      249.84219      101.46067      99.420863      296.08408     -151.35062     -574875.84     -573167.34      72387.542     -645554.88    
     70000   70000          1.1231352      1.1723605      343.41424      248.20673      95.207515      99.380319      296.3917       5.2454702     -573462.12     -573521.33      72462.75      -645984.08    
     71000   71000          1.1672017      1.1193619      354.37533      250.72263      103.65269      99.404302      297.00022     -155.2371      -574957.89     -573205.52      72611.522     -645817.05    
     72000   72000          1.1512557      1.1498268      349.35743      249.81043      99.547004      99.423448      296.79845      404.98707     -568512.75     -573084.38      72562.193     -645646.57    
     73000   73000          1.1320375      1.1088111      349.89165      248.34047      101.55118      99.467616      296.29486      100.05464     -572217.56     -573347.01      72439.074     -645786.08    
     74000   74000          1.1463889      1.1408344      348.31399      248.34809      99.965896      99.481537      296.83        -63.341959     -573974.45     -573259.42      72569.905     -645829.33    
     75000   75000          1.1097802      1.1083656      349.85425      250.20483      99.649419      99.522403      297.27533      72.87239      -572500.82     -573323.43      72678.781     -646002.21    
     76000   76000          1.101242       1.0943223      348.16267      247.98448      100.17819      99.548713      296.38764      199.25196     -571176.3      -573425.52      72461.757     -645887.28    
     77000   77000          1.0875658      1.0522685      354.40841      251.534        102.87441      99.535585      296.86931     -162.03636     -575037.72     -573208.6       72579.518     -645788.12    
     78000   78000          1.092948       1.0671653      354.09991      252.17197      101.92794      99.523453      295.63087     -194.22393     -575414.01     -573221.55      72276.741     -645498.29    
     79000   79000          1.0630113      1.1053564      341.80843      246.04026      95.76817       99.5831        295.66557      299.04272     -570118.16     -573493.85      72285.223     -645779.07    
     80000   80000          1.05908        1.0278753      352.84208      250.2244       102.61767      99.59415       295.7447       337.74987     -569353.5      -573166.13      72304.569     -645470.7     
     81000   81000          1.0662117      1.1197977      347.49423      252.64573      94.848506      99.615428      297.48482      4.2776292     -573105.18     -573153.47      72729.999     -645883.47    
     82000   82000          1.0218806      1.1670566      346.07531      258.85657      87.218739      99.609683      296.98542     -235.41604     -575890.99     -573233.54      72607.904     -645841.44    
     83000   83000          1.0462403      1.0260057      349.52288      247.93375      101.58912      99.624364      296.15989     -188.04238     -575383.3      -573260.62      72406.075     -645666.7     
     84000   84000          1.0443557      1.0486183      347.32835      248.10679      99.221564      99.626539      296.52009      392.49826     -568861.8      -573292.44      72494.139     -645786.58    
     85000   85000          1.0660417      0.9885563      357.75088      250.28971      107.46117      99.650335      295.80938      279.58611     -570137.41     -573293.46      72320.383     -645613.84    
     86000   86000          1.0299267      1.1263306      341.91409      250.78436      91.129727      99.65971       296.10496      134.18122     -571990.31     -573504.99      72392.647     -645897.63    
     87000   87000          1.0159733      1.0269947      348.96827      250.34514      98.62313       99.69301       296.97501      311.09036     -569981.6      -573493.29      72605.36      -646098.65    
     88000   88000          1.0382863      1.0058598      352.04755      249.13187      102.91567      99.701529      295.84196     -141.12161     -574946.57     -573353.54      72328.346     -645681.89    
     89000   89000          1.0065636      1.0740157      348.25667      254.81204      93.444634      99.706571      296.62183      380.63216     -569036.79     -573333.49      72519.012     -645852.5     
     90000   90000          0.99381177     0.98443        347.70258      247.05231      100.65027      99.700113      296.38998     -175.94871     -575552.93     -573566.77      72462.33      -646029.1     
     91000   91000          0.97635874     0.96611304     349.92471      249.16013      100.76458      99.707181      296.10949     -179.79344     -575731.48     -573701.91      72393.753     -646095.67    
     92000   92000          0.96285249     0.94511127     350.7651       249.19238      101.57272      99.701175      296.14813      22.142864     -573271.98     -573521.93      72403.201     -645925.13    
     93000   93000          0.96327994     0.92792028     348.18235      244.71487      103.46748      99.669445      296.09359     -214.67114     -576207.22     -573783.94      72389.867     -646173.81    
     94000   94000          0.95898368     0.9258709      355.88761      252.65475      103.23286      99.668328      296.60326     -22.42499      -573765.12     -573511.98      72514.471     -646026.46    
     95000   95000          0.95148107     0.97189644     345.40416      247.83409      97.570068      99.663571      295.5735       145.98901     -572035.38     -573683.35      72262.714     -645946.06    
     96000   96000          0.96501151     0.92945808     353.02185      249.54713      103.47472      99.662449      296.40334      295.30854     -570275.79     -573609.33      72465.596     -646074.92    
     97000   97000          0.9448607      0.96680577     342.28217      244.84127      97.440892      99.704027      295.2899       44.073812     -573380.27     -573877.79      72193.377     -646071.17    
     98000   98000          0.94351699     1.0352521      339.17713      248.31343      90.8637        99.698088      294.68189      503.51655     -568077.15     -573761.01      72044.73      -645805.74    
     99000   99000          0.95188368     0.87681716     359.05426      250.78875      108.26551      99.727581      296.29747     -180.80805     -575599.82     -573558.8       72439.711     -645998.51    
    100000   100000         0.94399502     0.99108034     348.51665      253.52537      94.99128       99.72933       295.73543      14.561568     -573511.72     -573676.1       72302.302     -645978.4     
    101000   101000         0.94815854     0.96419141     347.45194      249.36593      98.086008      99.744591      294.73016      134.48676     -572395.81     -573913.94      72056.532     -645970.48    
    102000   102000         0.94279957     0.97499002     341.94691      245.47397      96.472944      99.766865      295.2371      -208.58352     -576296        -573941.44      72180.47      -646121.91    
    103000   103000         0.93315962     1.0138799      342.82357      251.03672      91.786854      99.72661       295.37722     -259.23361     -576808.12     -573881.81      72214.726     -646096.54    
    104000   104000         0.94345857     0.83546606     358.00046      245.3908       112.60965      99.719845      295.26856     -67.12485      -574504.37     -573746.64      72188.161     -645934.8     
    105000   105000         0.93407426     0.91596699     351.33456      249.6508       101.68377      99.712601      295.09375     -42.061075     -574178.45     -573703.65      72145.424     -645849.07    
    106000   106000         0.93914543     0.96159823     352.48672      255.09097      97.395751      99.724259      296.89496     -246.47171     -576408.89     -573626.64      72585.788     -646212.43    
    107000   107000         0.96387103     0.87299395     360.41412      250.29994      110.11418      99.732235      295.41805     -373.80544     -577983.98     -573764.34      72224.708     -645989.05    
    108000   108000         0.93720822     0.9051136      352.18063      248.91413      103.26649      99.730143      295.09457     -25.784679     -574180.25     -573889.18      72145.622     -646034.81    
    109000   109000         0.93247977     0.94937038     346.87989      248.93195      97.947938      99.722133      294.44339     -386.51646     -578400.99     -574037.87      71986.42      -646024.29    
    110000   110000         0.91367518     0.98106174     344.43387      251.58574      92.848135      99.695992      294.85872      262.72942     -570955.29     -573921.07      72087.963     -646009.03    
    111000   111000         0.92395895     0.96544604     345.86209      250.47002      95.392063      99.675304      295.33101     -133.12416     -575460.88     -573958.14      72203.43      -646161.57    
    112000   112000         0.94190253     0.92102967     356.42251      254.49989      101.92262      99.663983      295.77102     -14.578463     -573798.59     -573634.02      72311.003     -645945.03    
    113000   113000         0.93716059     0.88659627     355.99269      250.62056      105.37213      99.686798      296.7629       166.70544     -571921.83     -573803.65      72553.502     -646357.15    
    114000   114000         0.91694165     0.96583986     346.99715      252.35954      94.637611      99.684399      296.28048      331.50113     -570237.36     -573979.45      72435.559     -646415.01    
    115000   115000         0.93087006     0.92914215     349.87097      250.02344      99.847527      99.662188      294.76381     -471.95103     -579223.64     -573896.11      72064.759     -645960.87    
    116000   116000         0.92099267     0.92348682     350.23028      250.82828      99.401995      99.671186      295.08064     -18.916345     -574211.8      -573998.27      72142.217     -646140.49    
    117000   117000         0.91423655     0.90945823     348.18361      247.96303      100.22058      99.696771      294.76308     -240.22825     -576819.57     -574107.8       72064.579     -646172.37    
    118000   118000         0.92769249     0.83515518     360.97859      250.25208      110.72651      99.681544      295.61482     -192.1299      -575984.97     -573816.14      72272.815     -646088.96    
    119000   119000         0.89181953     0.99668604     340.07993      250.87969      89.20024       99.689042      295.03097     -311.16258     -577494.51     -573982.01      72130.075     -646112.08    
    120000   120000         0.89543371     0.85213797     351.76826      247.00767      104.76059      99.695239      295.13424      17.472425     -573774        -573971.24      72155.323     -646126.56    
    121000   121000         0.89974012     0.83437947     355.87383      248.37327      107.50056      99.6913        294.54618      271.39418     -570785.11     -573848.7       72011.551     -645860.25    
    122000   122000         0.88800577     0.88509754     354.00442      253.94708      100.05734      99.729653      295.9661      -79.94494      -574744.06     -573841.62      72358.698     -646200.32    
    123000   123000         0.89178101     0.87284504     354.05152      252.16228      101.88924      99.72574       296.94238      147.08536     -572254.32     -573914.67      72597.381     -646512.05    
    124000   124000         0.87634272     0.87897585     350.27706      250.83895      99.438116      99.736895      294.71688      381.99668     -569809.25     -574121.35      72053.283     -646174.63    
    125000   125000         0.86856455     0.84681163     352.89571      250.59757      102.29813      99.736109      294.76513     -20.919506     -574324.51     -574088.37      72065.081     -646153.45    
    126000   126000         0.87246        0.880936       345.7693       246.98706      98.782237      99.741912      293.9126       68.560052     -573473.48     -574247.41      71856.652     -646104.06    
    127000   127000         0.88306438     0.8249405      355.0308       248.24568      106.78513      99.75646       294.07547      190.66072     -572043.48     -574195.71      71896.472     -646092.19    
    128000   128000         0.87867635     0.87851567     352.4965       252.73151      99.764987      99.746744      295.13683      385.68312     -569768.11     -574121.82      72155.954     -646277.78    
    129000   129000         0.87974042     0.95398478     345.94315      253.9624       91.980744      99.74332       294.81567     -90.12769      -575330.08     -574312.69      72077.436     -646390.12    
    130000   130000         0.87950808     0.86646138     351.86616      250.59336      101.2728       99.770507      294.27168      33.011656     -573655.97     -574028.62      71944.441     -645973.06    
    131000   131000         0.87032561     0.8546157      356.1364       254.50652      101.62988      99.795401      295.78682      317.82373     -570486        -574073.7       72314.867     -646388.57    
    132000   132000         0.8537828      0.83722696     354.60588      252.83953      101.76635      99.792984      295.13553     -181.05891     -576015.72     -573971.87      72155.637     -646127.5     
    133000   133000         0.85816453     0.82363353     356.85981      252.87542      103.98439      99.800245      295.03834      238.04046     -571449.11     -574136.19      72131.875     -646268.07    
    134000   134000         0.87943057     0.77601031     357.86545      244.77748      113.08796      99.78892       295.91761      22.628395     -573805.42     -574060.85      72346.842     -646407.69    
    135000   135000         0.86334499     0.85928381     350.60395      250.31572      100.28823      99.816473      294.97774     -59.576318     -574870.51     -574197.99      72117.06      -646315.05    
    136000   136000         0.86129328     0.80771233     357.64413      251.18592      106.45821      99.835458      294.64987     -74.71777      -574837.24     -573993.81      72036.901     -646030.71    
    137000   137000         0.85827858     0.81941049     348.34064      243.76067      104.57997      99.843953      294.61286      4.7311138     -574342.14     -574395.54      72027.853     -646423.4     
    138000   138000         0.82885706     0.95506951     342.01308      255.35999      86.653085      99.847999      295.05654     -237.14162     -576878.5      -574201.57      72136.326     -646337.89    
    139000   139000         0.83877361     0.85294937     348.76808      250.60673      98.161355      99.82034       294.57676      46.024363     -573616.16     -574135.7       72019.027     -646154.72    
    140000   140000         0.84502566     0.83949782     353.34232      252.85914      100.48318      99.825856      295.90763      73.377043     -573263.23     -574091.53      72344.403     -646435.93    
    141000   141000         0.84582477     0.85507554     351.59095      252.85847      98.732478      99.812314      294.74279      70.280761     -573110.42     -573903.77      72059.62      -645963.39    
    142000   142000         0.82676133     0.78508824     353.18866      248.0993       105.08935      99.792301      295.64756     -487.58379     -579520.42     -574016.42      72280.821     -646297.24    
    143000   143000         0.82891457     0.93327034     344.31459      255.67237      88.642214      99.801779      294.71681      176.11583     -571914.13     -573902.19      72053.267     -645955.45    
    144000   144000         0.83497947     0.82407286     351.76931      250.6372       101.13211      99.811109      295.09836      76.542001     -573053.52     -573917.55      72146.551     -646064.1     
    145000   145000         0.81123012     0.90308039     340.61806      250.97739      89.640669      99.790094      293.27555      111.95465     -573052.83     -574316.61      71700.903     -646017.51    
    146000   146000         0.84243456     0.82131836     352.27385      249.91712      102.35673      99.791086      294.97653      261.74924     -570969.44     -573924.15      72116.766     -646040.92    
    147000   147000         0.82815878     0.79234086     353.8833       249.57527      104.30803      99.796704      294.92331      269.62731     -571159.37     -574203.01      72103.753     -646306.76    
    148000   148000         0.81184372     0.79876895     350.36907      248.9351       101.43397      99.800374      295.4621      -22.047238     -574494.96     -574246.08      72235.479     -646481.56    
    149000   149000         0.84103149     0.76906343     356.02055      246.87795      109.1426       99.803138      296.26353      218.27293     -571406.49     -573870.43      72431.415     -646301.84    
    150000   150000         0.83926416     0.82032641     351.81051      249.69892      102.11159      99.807477      295.26773      252.40464     -570973.24     -573822.46      72187.958     -646010.42    
    151000   151000         0.82474874     0.75074853     352.21951      242.55878      109.66073      99.821468      294.39658      440.62201     -569252.59     -574226.47      71974.975     -646201.45    
    152000   152000         0.81103765     0.87511803     342.04121      249.53322      92.507995      99.817085      294.77605      235.432       -571523.28     -574180.91      72067.75      -646248.66    
    153000   153000         0.81884683     0.77873249     351.42165      246.47025      104.95139      99.809948      294.76303      114.42404     -572612.06     -573903.71      72064.567     -645968.28    
    154000   154000         0.8129955      0.85449062     344.46774      249.48354      94.984196      99.832169      294.99451      28.191771     -573607.61     -573925.85      72121.161     -646047.01    
    155000   155000         0.80575084     0.78506405     354.87071      252.41117      102.45954      99.829003      294.43085     -106.66832     -575065.24     -573861.13      71983.356     -645844.49    
    156000   156000         0.81400027     0.82038502     354.21456      255.14988      99.064685      99.841715      296.91054      85.147224     -572914.82     -573875.99      72589.597     -646465.59    
    157000   157000         0.81184045     0.80964341     351.76096      251.6397       100.12126      99.85031       294.83516      59.423987     -573434.57     -574105.37      72082.203     -646187.57    
    158000   158000         0.82207781     0.78124257     355.80121      250.73209      105.06911      99.849993      294.21656      404.81228     -569416.66     -573986.31      71930.965     -645917.27    
    159000   159000         0.80536576     0.75723302     354.72965      248.51253      106.21712      99.869046      296.08484     -135.86362     -575489.33     -573955.65      72387.728     -646343.38    
    160000   160000         0.80799907     0.83543385     346.87384      250.27048      96.603365      99.883433      294.78397      2.5377391     -574096.43     -574125.08      72069.688     -646194.77    
    161000   161000         0.7973851      0.85854739     345.55122      252.76821      92.783014      99.899803      294.51324     -227.50201     -576640.54     -574072.43      72003.497     -646075.92    
    162000   162000         0.80837856     0.77651739     345.28314      241.27637      104.00678      99.907487      293.49877     -90.017728     -575267.33     -574251.18      71755.478     -646006.66    
    163000   163000         0.77889215     0.86137615     341.69354      251.35452      90.339017      99.90584       294.81137     -496.71337     -579915.68     -574308.62      72076.385     -646385.01    
    164000   164000         0.79418599     0.75148131     352.94966      247.35934      105.59032      99.912558      294.48261     -261.49288     -577142.23     -574190.41      71996.01      -646186.42    
    165000   165000         0.79559235     0.7831913      351.82136      250.32736      101.49399      99.911989      295.49465      325.00953     -570415.83     -574084.64      72243.436     -646328.07    
    166000   166000         0.78898103     0.78087248     349.61892      248.66082      100.9581       99.92053       294.53873     -256.13824     -577034.96     -574143.59      72009.729     -646153.32    
    167000   167000         0.7929882      0.7857819      348.75303      247.9294       100.82363      99.907392      294.35684      58.700506     -573476.11     -574138.74      71965.26      -646104       
    168000   168000         0.773083       0.75464745     355.84991      253.48417      102.36574      99.924645      294.45941      242.88003     -571306.38     -574048.09      71990.337     -646038.43    
    169000   169000         0.78542721     0.78343713     346.70658      246.51308      100.1935       99.939639      294.80668     -125.21837     -575660.08     -574246.57      72075.24      -646321.81    
    170000   170000         0.77813508     0.76271185     352.53566      250.58684      101.94883      99.928123      294.04283      34.863712     -573897.87     -574291.42      71888.491     -646179.91    
    171000   171000         0.78053281     0.70774622     355.60729      245.39878      110.20851      99.931297      294.87978      34.171211     -573894.04     -574279.77      72093.11      -646372.88    
    172000   172000         0.7711884      0.79607432     352.24019      255.43257      96.807624      99.931565      293.82305     -346.81944     -578377.51     -574462.51      71834.758     -646297.26    
    173000   173000         0.77374907     0.77408856     351.61621      251.71028      99.905929      99.949763      295.8989       234.96223     -571891.49     -574543.81      72342.268     -646886.08    
    174000   174000         0.7604333      0.80456781     347.11368      252.65701      94.45667       99.938806      294.45687     -678.59771     -582118.53     -574458.3       71989.717     -646448.02    
    175000   175000         0.76686436     0.78932263     345.26375      248.16836      97.095382      99.938902      293.58648      348.50213     -570539.23     -574473.23      71776.92      -646250.15    
    176000   176000         0.76041119     0.786398       342.07392      245.4309       96.643019      99.945763      293.26702      132.70953     -573265.48     -574763.55      71698.817     -646462.36    
    177000   177000         0.77737976     0.72779384     354.60876      247.86298      106.74579      99.936902      294.30639     -50.330669     -575227.36     -574659.21      71952.928     -646612.14    
    178000   178000         0.75696837     0.8226947      344.17557      252.22046      91.955106      99.939417      293.51805      196.15777     -572465.91     -574680.2       71760.19      -646440.39    
    179000   179000         0.77706071     0.69743549     356.50793      245.16066      111.34727      99.937547      293.68274     -67.221442     -575219.61     -574460.79      71800.455     -646261.25    
    180000   180000         0.75790269     0.68671379     357.66225      247.35848      110.30378      99.943073      294.11546      93.291309     -573658.8      -574711.9       71906.249     -646618.15    
    181000   181000         0.75266224     0.77640579     346.78492      249.90368      96.881237      99.937462      294.63004      101.25828     -573525.39     -574668.42      72032.053     -646700.48    
    182000   182000         0.76018188     0.6832888      356.36816      245.18075      111.1874       99.940699      294.88997     -140.55625     -576128.27     -574541.63      72095.603     -646637.23    
    183000   183000         0.7484625      0.78370648     345.60198      250.15532      95.446659      99.941099      293.85505      260.50639     -571482.05     -574422.73      71842.582     -646265.31    
    184000   184000         0.75634452     0.80013369     342.03823      247.57581      94.462421      99.931397      294.10027     -72.100931     -575345.2      -574531.3       71902.534     -646433.83    
    185000   185000         0.75524301     0.80368264     347.69341      253.79574      93.897666      99.920057      294.31799      46.391299     -573777.93     -574301.61      71955.762     -646257.37    
    186000   186000         0.76066215     0.7343267      350.42745      246.92604      103.50141      99.918014      294.12606      154.75703     -572619.64     -574366.59      71908.84      -646275.43    
    187000   187000         0.7481171      0.75354577     350.18311      250.98229      99.200828      99.920672      294.0107      -304.97248     -578027.22     -574584.6       71880.636     -646465.23    
    188000   188000         0.76734483     0.78827209     348.34534      251.07327      97.272067      99.924899      294.64587     -373.68359     -578546.19     -574327.93      72035.923     -646363.86    
    189000   189000         0.76320776     0.69677457     353.23256      243.77309      109.45947      99.931607      293.42576      136.63459     -573154.15     -574696.52      71737.629     -646434.15    
    190000   190000         0.74276335     0.69811406     350.52975      244.21085      106.3189       99.927813      293.42089     -57.645797     -575240.52     -574589.8       71736.437     -646326.24    
    191000   191000         0.75491598     0.70584434     355.33002      248.45381      106.87621      99.928962      294.42477     -469.46566     -579939.19     -574639.71      71981.868     -646621.58    
    192000   192000         0.73263158     0.74190462     348.27655      249.5884       98.688155      99.937267      293.71646      167.04512     -572966.7      -574852.36      71808.698     -646661.05    
    193000   193000         0.74509454     0.73426749     352.16019      250.76061      101.39958      99.926134      294.93503     -369.37093     -578690.8      -574521.22      72106.619     -646627.84    
    194000   194000         0.73278842     0.75198613     348.70994      251.33352      97.376421      99.927504      295.04943      236.74219     -571924.35     -574596.77      72134.588     -646731.36    
    195000   195000         0.73922691     0.72471307     353.78421      251.8412       101.94301      99.941485      292.82502     -147.54943     -576183.78     -574518.19      71590.758     -646108.95    
    196000   196000         0.72431875     0.75491933     352.11936      256.22528      95.894076      99.94535       294.1842      -87.856984     -575534.62     -574542.86      71923.054     -646465.92    
    197000   197000         0.72269002     0.75720124     345.31985      249.94197      95.377883      99.932543      293.77        -210.49954     -577004.88     -574628.69      71821.788     -646450.48    
    198000   198000         0.73862164     0.70436875     350.49356      245.71844      104.77512      99.916275      294.06961      289.24383     -571353.32     -574618.39      71895.038     -646513.43    
    199000   199000         0.73548468     0.76249846     345.6243       249.24577      96.378527      99.918435      293.1226      -114.74787     -575883.92     -574588.61      71663.51      -646252.12    
    200000   200000         0.72106977     0.73729507     346.80949      249.07017      97.739323      99.938624      293.25646     -358.83425     -578726.23     -574675.6       71696.236     -646371.83    
    201000   201000         0.7296226      0.7001415      352.13962      247.99669      104.14293      99.934934      294.19162     -631.50093     -581616.55     -574487.96      71924.867     -646412.83    
    202000   202000         0.72522948     0.69163303     354.76596      249.98372      104.78224      99.928172      293.81087      169.48498     -572752.37     -574665.57      71831.782     -646497.35    
    203000   203000         0.72561709     0.73699947     349.64209      251.2577       98.384392      99.927697      293.57082     -344.39072     -578504.8      -574617.21      71773.092     -646390.3     
    204000   204000         0.71707646     0.73147198     343.16011      245.20723      97.952874      99.919307      293.10592      18.039556     -574418.59     -574622.22      71659.433     -646281.66    
    205000   205000         0.72031332     0.75648177     341.82019      246.67842      95.141768      99.919036      293.00322      372.55404     -570593.42     -574798.92      71634.323     -646433.25    
    206000   206000         0.71275431     0.77929071     345.2096       253.81133      91.39827       99.930399      294.13146     -16.456839     -574738.69     -574552.92      71910.159     -646463.08    
    207000   207000         0.70148612     0.80542245     343.02078      255.99074      87.030041      99.924927      293.78691     -154.16554     -576396.57     -574656.3       71825.921     -646482.22    
    208000   208000         0.70328892     0.77227013     343.15152      252.16767      90.983851      99.907888      293.90603     -300.85884     -578089.76     -574693.57      71855.046     -646548.62    
    209000   209000         0.70206561     0.73102255     344.55808      248.61528      95.942798      99.899992      293.68302     -376.47069     -579027.07     -574777.35      71800.522     -646577.87    
    210000   210000         0.7063765      0.66456358     355.0896       248.90992      106.17968      99.894528      294.61641      78.242453     -573636.68     -574519.91      72028.72      -646548.63    
    211000   211000         0.69845399     0.75590219     346.89238      254.57433      92.318043      99.911248      294.69045      49.692922     -573820.99     -574381.94      72046.822     -646428.76    
    212000   212000         0.69566246     0.68005745     349.92669      247.72149      102.2052       99.912546      294.20925     -232.42737     -577218.08     -574594.37      71929.178     -646523.55    
    213000   213000         0.70154811     0.68797642     352.16571      250.28423      101.88148      99.910551      293.98334     -756.08469     -582953.77     -574418.85      71873.947     -646292.8     
    214000   214000         0.69637383     0.65123834     353.21814      246.38359      106.83455      99.91007       293.65676     -274.71682     -577617.03     -574515.94      71794.103     -646310.04    
    215000   215000         0.68753209     0.71682284     349.74739      253.92243      95.824957      99.907363      294.24781     -282.05455     -577510.37     -574326.45      71938.605     -646265.05    
    216000   216000         0.69213071     0.66785845     352.50684      248.96703      103.53981      99.908783      294.5292      -62.47707      -575223.64     -574518.38      72007.4       -646525.78    
    217000   217000         0.68567323     0.66958541     350.12988      247.81825      102.31162      99.911105      293.85645      391.22059     -570135.07     -574551.29      71842.924     -646394.22    
    218000   218000         0.68837674     0.70465834     347.73413      250.12347      97.61066       99.919364      295.10576     -334.54064     -578109.97     -574333.57      72148.359     -646481.93    
    219000   219000         0.6881846      0.69114401     350.59799      251.09947      99.498524      99.926399      294.86549     -58.431368     -575131.54     -574471.94      72089.617     -646561.56    
    220000   220000         0.68720025     0.6510874      356.4723       251.01462      105.45768      99.915807      296.65888      27.565188     -573923.99     -574235.15      72528.07      -646763.22    
    221000   221000         0.69118719     0.76151766     344.54875      253.84538      90.703369      99.932721      294.08641     -286.42446     -577477.66     -574244.41      71899.145     -646143.55    
    222000   222000         0.69634067     0.69682667     348.79585      248.9252       99.870656      99.940359      294.72603     -55.078592     -574949.93     -574328.19      72055.521     -646383.71    
    223000   223000         0.68816844     0.70250944     350.56609      252.67141      97.894678      99.934742      293.88076     -450.33404     -579406.08     -574322.57      71848.866     -646171.43    
    224000   224000         0.69406052     0.70422571     346.95311      248.46288      98.490233      99.932719      294.60291     -86.116277     -575280.9      -574308.79      72025.421     -646334.22    
    225000   225000         0.69185826     0.683013       349.07839      247.83826      101.24013      99.945793      295.14413      288.5358      -571028.42     -574285.5       72157.741     -646443.24    
    226000   226000         0.69752635     0.72074947     344.32937      247.60726      96.722111      99.942332      295.064       -198.90861     -576627.21     -574381.87      72138.149     -646520.02    
    227000   227000         0.70425513     0.61799048     358.61735      244.73046      113.88689      99.936814      294.32072     -201.30531     -576394.28     -574121.88      71956.429     -646078.31    
    228000   228000         0.68436422     0.70237702     344.53903      247.16838      97.370645      99.933488      294.40273     -149.44827     -576050.34     -574363.32      71976.481     -646339.8     
    229000   229000         0.68436342     0.7211582      350.46295      255.64447      94.818477      99.916389      295.64332     -114.53636     -575386.19     -574093.26      72279.783     -646373.05    
    230000   230000         0.67333447     0.7524658      342.61946      253.21159      89.407873      99.915228      294.26065      88.018641     -573175.95     -574169.53      71941.743     -646111.27    
    231000   231000         0.6824965      0.78939154     337.2328       250.85613      86.376672      99.905295      294.36374     -22.600877     -574595.71     -574340.58      71966.947     -646307.53    
    232000   232000         0.68615709     0.63013483     356.25923      247.47098      108.78825      99.906082      294.89053     -49.524616     -574852.14     -574293.09      72095.739     -646388.83    
    233000   233000         0.67315657     0.70103669     347.64667      251.72258      95.924092      99.896979      295.27568      246.68604     -571418.07     -574202.74      72189.902     -646392.64    
    234000   234000         0.6846214      0.64154567     354.50635      247.89789      106.60846      99.900755      295.37646     -159.59247     -575815.95     -574014.42      72214.54      -646228.96    
    235000   235000         0.6763409      0.66438545     351.19674      249.51066      101.68608      99.888609      295.35446      134.14296     -572675.21     -574189.46      72209.163     -646398.62    
    236000   236000         0.67323018     0.70125039     347.42248      251.51461      95.907874      99.899611      294.82805     -71.940279     -574941.13     -574129.04      72080.464     -646209.51    
    237000   237000         0.68668167     0.65827731     354.43092      250.21893      104.21199      99.901292      295.32401     -36.876758     -574526.5      -574110.22      72201.718     -646311.94    
    238000   238000         0.67956825     0.61702888     359.67413      249.64357      110.03056      99.904661      295.75403     -271.63596     -577104.47     -574038.16      72306.85      -646345.01    
    239000   239000         0.67924857     0.68413429     350.11423      250.90918      99.205051      99.918617      293.48243     -143.77261     -575837.29     -574214.34      71751.482     -645965.82    
    240000   240000         0.67100847     0.66961254     350.09028      249.95108      100.13919      99.930868      294.72706      141.37211     -572734.83     -574330.68      72055.772     -646386.45    
    241000   241000         0.66949833     0.68143906     348.83341      250.6488       98.18461       99.935766      294.12214     -54.227155     -574901.03     -574288.9       71907.88      -646196.78    
    242000   242000         0.66195151     0.7156877      349.53964      257.10686      92.432789      99.936338      295.10178     -419.63452     -579164.38     -574427.42      72147.385     -646574.8     
    243000   243000         0.65701548     0.68576547     349.04423      253.31117      95.73306       99.922191      294.74563     -212.76929     -576848.84     -574447.03      72060.314     -646507.34    
    244000   244000         0.66513762     0.70488754     343.24801      248.96296      94.28505       99.919709      294.46921      142.47845     -572946.85     -574555.2       71992.734     -646547.93    
    245000   245000         0.66236481     0.64342844     350.19606      247.32506      102.87099      99.930009      293.01712     -240.94462     -577244.07     -574524.21      71637.722     -646161.93    
    246000   246000         0.6680729      0.64074264     353.05467      248.8612       104.19347      99.931011      293.97449      27.442374     -574152.96     -574462.74      71871.783     -646334.52    
    247000   247000         0.66277211     0.64504181     353.10811      250.42331      102.6848       99.937803      294.38974     -160.39118     -576234.63     -574424.08      71973.305     -646397.39    
    248000   248000         0.65399514     0.71775507     343.58713      252.5267       91.060426      99.938177      294.40592      362.29898     -570385.24     -574474.99      71977.26      -646452.25    
    249000   249000         0.65529512     0.66097983     351.41365      252.34038      99.073271      99.932736      294.2847      -415.80311     -578958.69     -574264.97      71947.623     -646212.6     
    250000   250000         0.66444021     0.64639526     348.76679      246.04065      102.72614      99.936289      293.5793      -163.51478     -576290.64     -574444.84      71775.166     -646220       
    251000   251000         0.66268459     0.67102345     348.81812      250.1196       98.69852       99.940488      294.73018      392.8155      -569935.97     -574370.2       72056.536     -646426.73    
    252000   252000         0.6649298      0.65099599     355.81987      253.73374      102.08613      99.94688       294.22561     -259.00242     -577217.71     -574294.01      71933.178     -646227.18    
    253000   253000         0.65693079     0.65909978     343.09619      243.47565      99.620542      99.949458      293.56019      119.78599     -573339.1      -574691.28      71770.493     -646461.78    
    254000   254000         0.65355633     0.65390604     350.99679      251.09822      99.898568      99.952022      294.26487     -101.25335     -575542.18     -574399.2       71942.775     -646341.98    
    255000   255000         0.65744517     0.61803862     355.26763      248.94657      106.32106      99.94829       295.92555      387.93498     -570132.32     -574511.45      72348.784     -646860.24    
    256000   256000         0.65536343     0.63496622     347.71317      244.56235      103.15082      99.940405      294.28362     -430.06796     -579338.98     -574484.23      71947.36      -646431.59    
    257000   257000         0.65189863     0.64390822     351.56275      250.39112      101.17163      99.931558      293.91396      38.526823     -573977.14     -574412.04      71856.984     -646269.03    
    258000   258000         0.64886028     0.65192853     350.33643      250.87495      99.461479      99.9318        294.83069     -244.78518     -577333.95     -574570.74      72081.109     -646651.85    
    259000   259000         0.64987531     0.65064489     351.91686      252.10918      99.807679      99.925871      294.59625     -129.27213     -575851.56     -574392.3       72023.791     -646416.09    
    260000   260000         0.6451501      0.65841042     352.6125       254.7079       97.9046        99.916915      294.56631     -401.87096     -578963.21     -574426.76      72016.472     -646443.23    
    261000   261000         0.65619577     0.63374143     356.38982      252.94284      103.44698      99.907127      294.50276     -14.385488     -574432.06     -574269.67      72000.937     -646270.61    
    262000   262000         0.65131401     0.65730612     349.32575      250.32556      99.000196      99.911001      295.32851     -6.827175      -574604.04     -574526.97      72202.818     -646729.79    
    263000   263000         0.6570604      0.6262221      356.38198      251.55564      104.82634      99.906449      294.82996     -9.6368066     -574384.38     -574275.6       72080.93      -646356.53    
    264000   264000         0.6432267      0.68292339     348.70492      254.59988      94.105042      99.912728      294.71729      518.11287     -568561.47     -574410.09      72053.384     -646463.48    
    265000   265000         0.6425052      0.65846274     350.98624      253.49752      97.488715      99.909987      294.40298     -188.62474     -576508.46     -574379.2       71976.541     -646355.74    
    266000   266000         0.64167678     0.6537551      349.09813      251.02358      98.074547      99.92061       294.97872     -104.71836     -575823.48     -574641.38      72117.299     -646758.68    
    267000   267000         0.64693265     0.61749273     352.83513      248.15995      104.67518      99.911736      293.82855      80.696856     -573504.67     -574415.6       71836.102     -646251.7     
    268000   268000         0.65866186     0.60283759     355.02113      245.852        109.16913      99.916602      294.86742      241.7577      -571750.19     -574479.22      72090.089     -646569.31    
    269000   269000         0.64286495     0.64295592     349.10831      249.2066       99.901707      99.915843      294.0977      -98.688709     -575571.35     -574457.32      71901.906     -646359.23    
    270000   270000         0.6507909      0.61869107     355.72163      250.63012      105.09152      99.907947      295.24602     -206.02712     -576689.8      -574364.1       72182.649     -646546.75    
    271000   271000         0.6443951      0.65013333     352.04807      253.02506      99.023015      99.904797      294.40571     -113.94945     -575742.73     -574456.44      71977.21      -646433.65    
    272000   272000         0.64862291     0.65205178     342.87504      243.49489      99.380149      99.905512      293.94633     -204.6816      -577027.29     -574716.78      71864.897     -646581.67    
    273000   273000         0.64682988     0.63512557     356.2825       254.51672      101.76577      99.924333      294.51067      37.385378     -573925.43     -574347.44      72002.869     -646350.31    
    274000   274000         0.63571907     0.62476138     356.91174      255.24089      101.67085      99.918382      294.86262     -40.535032     -575095.83     -574638.26      72088.915     -646727.17    
    275000   275000         0.63867266     0.61781127     353.15725      249.86678      103.29047      99.916623      295.0697      -184.14418     -576703.06     -574624.39      72139.542     -646763.93    
    276000   276000         0.63885025     0.61345288     356.18163      252.12974      104.05189      99.915329      294.24781     -266.94849     -577505.36     -574491.96      71938.605     -646430.57    
    277000   277000         0.64060913     0.60652043     353.82957      248.29002      105.53955      99.923478      294.00345      119.27265     -573065.72     -574412.1       71878.862     -646290.97    
    278000   278000         0.63653254     0.65643992     346.65958      249.7679       96.891675      99.921935      293.83778      265.68705     -571519.69     -574518.85      71838.359     -646357.21    
    279000   279000         0.64342054     0.60175567     355.18801      248.33675      106.85126      99.932077      293.44824     -72.251008     -575254.17     -574438.58      71743.123     -646181.7     
    280000   280000         0.63483534     0.64382158     349.1459       250.60529      98.540603      99.935468      293.30643     -8.5344072     -574635.08     -574538.74      71708.454     -646247.19    
    281000   281000         0.6296907      0.71367999     342.50419      254.33687      88.167318      99.927236      293.92225     -129.19989     -576214.65     -574756.2       71859.01      -646615.21    
    282000   282000         0.63352329     0.60254302     352.8075       247.7462       105.0613       99.923638      294.34474     -375.42473     -578916.3      -574678.38      71962.302     -646640.69    
    283000   283000         0.63640352     0.6070547      352.59749      247.84084      104.75665      99.925623      293.97995     -481.54195     -580035.39     -574599.59      71873.117     -646472.71    
    284000   284000         0.63333692     0.60522447     357.06818      252.50059      104.56759      99.926062      295.59815      39.785093     -574096.38     -574545.49      72268.741     -646814.23    
    285000   285000         0.62490342     0.6770913      347.55166      255.33413      92.217529      99.91894       294.50687     -121.70135     -576062.1      -574688.3       72001.94      -646690.24    
    286000   286000         0.6348968      0.62744738     346.58476      245.47975      101.10501      99.918718      293.78362     -215.28876     -577061.96     -574631.72      71825.119     -646456.83    
    287000   287000         0.63077221     0.57651837     357.84424      248.52712      109.31713      99.914564      293.61124     -144.32334     -576324.27     -574695.1       71782.973     -646478.08    
    288000   288000         0.62557084     0.67330392     349.09424      256.25796      92.836281      99.919991      294.71941     -209.84415     -577004.19     -574635.4       72053.904     -646689.31    
    289000   289000         0.62969489     0.62817        351.00059      250.84185      100.15874      99.916192      294.47423     -52.867776     -575191.01     -574594.22      71993.961     -646588.18    
    290000   290000         0.63031449     0.67814226     342.80879      249.92891      92.879879      99.927531      294.59925      213.59814     -572323.5      -574734.66      72024.526     -646759.19    
    291000   291000         0.63539524     0.62246495     350.0752       248.07741      101.99779      99.922131      293.75114     -389.6432      -579094.63     -574696.21      71817.178     -646513.39    
    292000   292000         0.63043602     0.59608136     355.71405      250.03484      105.6792       99.920376      293.46848      220.05043     -572370.03     -574854.03      71748.071     -646602.1     
    293000   293000         0.63877453     0.58378067     360.30935      250.96874      109.34061      99.927172      295.26779     -44.686463     -575165.53     -574661.1       72187.973     -646849.07    
    294000   294000         0.64052739     0.67502531     347.63361      252.80762      94.825995      99.933192      293.67687     -332.58649     -578417.32     -574662.98      71799.019     -646462       
    295000   295000         0.63880543     0.6532443      346.16455      248.43943      97.725122      99.933996      294.10022     -39.418235     -575198.33     -574753.37      71902.522     -646655.89    
    296000   296000         0.63876073     0.61723067     350.43736      247.0179       103.41945      99.933601      293.82174      415.70303     -570083.13     -574775.72      71834.438     -646610.16    
    297000   297000         0.63882313     0.60500471     357.6486       252.13079      105.51781      99.931847      294.25758      157.40504     -572642.63     -574419.47      71940.993     -646360.46    
    298000   298000         0.6326272      0.63968824     347.58242      248.74561      98.836809      99.939971      294.21918     -168.22306     -576495.6      -574596.65      71931.605     -646528.25    
    299000   299000         0.62294859     0.65885499     346.21606      251.73808      94.477983      99.923638      293.98174     -98.928356     -575690.08     -574573.35      71873.556     -646446.9     
    300000   300000         0.6247026      0.61211762     349.22218      247.24928      101.9729       99.918596      293.99857     -74.200473     -575576.23     -574738.63      71877.67      -646616.3     
    301000   301000         0.62989539     0.62115265     354.58305      253.25731      101.32573      99.919365      294.05484      76.011888     -573724.32     -574582.37      71891.428     -646473.8     
    302000   302000         0.62844783     0.66955694     343.19122      249.40476      93.786457      99.921378      294.03531      160.49135     -572812.09     -574623.77      71886.653     -646510.42    
    303000   303000         0.62922249     0.6241422      351.63651      250.91296      100.72355      99.910313      294.13608      97.46153      -573536.16     -574636.34      71911.288     -646547.63    
    304000   304000         0.62440421     0.62288076     347.76475      247.6241       100.14065      99.896323      293.21736     -94.851243     -575657.51     -574586.8       71686.676     -646273.48    
    305000   305000         0.6313575      0.56792788     358.56153      247.50896      111.05256      99.895617      293.40254     -123.59352     -575818.74     -574423.57      71731.95      -646155.52    
    306000   306000         0.62836905     0.64929476     346.75364      250.0695       96.684143      99.903882      293.42581     -91.754256     -575551.91     -574516.16      71737.64      -646253.8     
    307000   307000         0.62312822     0.64130572     346.91806      249.84756      97.070494      99.902172      294.40446     -341.16372     -578528.34     -574677.18      71976.903     -646654.08    
    308000   308000         0.62063828     0.65227588     352.99443      257.93662      95.05781       99.903469      294.78929     -194.47684     -576666.2      -574470.88      72070.988     -646541.87    
    309000   309000         0.6253839      0.6171284      352.64927      251.40459      101.24468      99.908176      294.8206      -342.43988     -578274.53     -574408.96      72078.642     -646487.6     
    310000   310000         0.62055421     0.63821751     346.82586      249.68119      97.144663      99.909764      293.85595     -11.857014     -574743.63     -574609.79      71842.802     -646452.59    
    311000   311000         0.62316798     0.62865578     344.18099      245.15055      99.030443      99.902535      293.99579     -96.881549     -575581.2      -574487.57      71876.991     -646364.56    
    312000   312000         0.62961953     0.61519595     352.44388      250.19568      102.2482       99.905861      293.34982      32.623731     -573974.05     -574342.32      71719.063     -646061.38    
    313000   313000         0.62577989     0.673611       342.17817      249.36291      92.815264      99.909543      293.71369     -241.71405     -577325.57     -574597.02      71808.022     -646405.05    
    314000   314000         0.62168853     0.59657054     356.06142      251.94151      104.11991      99.913166      294.57026      87.266317     -573405.68     -574390.77      72017.439     -646408.21    
    315000   315000         0.6172595      0.63464271     347.37509      250.2028       97.172285      99.908843      293.56339      4.3723821     -574688.19     -574737.55      71771.276     -646508.82    
    316000   316000         0.6126537      0.70772386     341.85221      255.36172      86.490494      99.911886      294.04566      205.22898     -572405.13     -574721.82      71889.182     -646611       
    317000   317000         0.61547992     0.65793431     345.00652      251.54951      93.457003      99.903452      293.34719     -135.53806     -576340.1      -574810.1       71718.419     -646528.52    
    318000   318000         0.61892275     0.59716467     355.57858      252.02245      103.55613      99.915639      295.18858     -20.904193     -574815.51     -574579.54      72168.606     -646748.15    
    319000   319000         0.61719467     0.58529393     353.23471      247.87226      105.36245      99.916617      294.70272     -1.6315095     -574744.34     -574725.93      72049.822     -646775.75    
    320000   320000         0.60908292     0.64153272     346.49072      251.62485      94.865869      99.919989      294.03066     -435.59933     -579603.69     -574686.51      71885.515     -646572.03    
    321000   321000         0.61115673     0.62001835     352.35284      253.86509      98.487749      99.915797      293.5932       270.88665     -571581.77     -574639.62      71778.565     -646418.19    
[...]
    932000   932000         0.48485126     0.51168422     350.22731      255.63273      94.59458       99.829695      294.22105     -206.97559     -577509.16     -575172.76      71932.062     -647104.82    
    933000   933000         0.48244405     0.51350298     346.17395      252.38124      93.792712      99.830928      293.75959      195.26621     -573068.04     -575272.27      71819.242     -647091.51    
    934000   934000         0.48218143     0.50673452     351.1619       256.16855      94.993353      99.830495      292.38441     -59.376464     -575984.83     -575314.57      71483.035     -646797.61    
    935000   935000         0.48368974     0.45766529     353.83847      248.32968      105.50879      99.831997      293.06214     -101.73221     -576316.02     -575167.63      71648.728     -646816.36    
    936000   936000         0.4854263      0.4543359      352.73979      246.07199      106.66779      99.835975      292.85065     -136.9411      -576712.64     -575166.8       71597.023     -646763.83    
    937000   937000         0.48432692     0.46678911     348.63993      245.0551       103.58484      99.833958      293.60692      206.808       -572932.35     -575266.86      71781.917     -647048.78    
    938000   938000         0.4821918      0.50865154     348.72026      254.08218      94.63808       99.831239      292.91928     -124.21844     -576738.49     -575336.28      71613.802     -646950.08    
    939000   939000         0.483093       0.5019655      346.89349      250.8181       96.07539       99.828669      293.2822       452.58801     -570157.31     -575266.27      71702.529     -646968.79    
    940000   940000         0.48680811     0.4496231      355.85186      247.76858      108.08329      99.827306      293.74006     -88.478045     -576095.15     -575096.38      71814.468     -646910.85    
    941000   941000         0.484765       0.51670208     341.84968      248.18787      93.661809      99.832396      293.92204     -308.96831     -578747.95     -575260.22      71858.959     -647119.18    
    942000   942000         0.48582375     0.48229416     354.57559      254.01167      100.56393      99.833317      295.07635      116.78173     -573561.6      -574879.87      72141.17      -647021.04    
    943000   943000         0.48447894     0.47877748     350.35014      249.32623      101.02391      99.835036      293.99655      225.37009     -572476.13     -575020.18      71877.176     -646897.35    
    944000   944000         0.48140434     0.52965389     344.44047      253.69848      90.741984      99.83675       292.54452      6.2707836     -574981.56     -575052.34      71522.179     -646574.52    
    945000   945000         0.48469535     0.45225822     356.19565      249.19775      106.9979       99.83731       294.48508     -703.6957      -582857.04     -574913.5       71996.613     -646910.11    
    946000   946000         0.48445346     0.43720474     354.22947      243.603        110.62646      99.837069      294.45806     -330.52984     -578815.1      -575083.97      71990.007     -647073.98    
    947000   947000         0.4817254      0.48008892     356.59586      256.41601      100.17986      99.839534      295.02096     -114.7347      -576027.1      -574731.94      72127.626     -646859.56    
    948000   948000         0.48279287     0.49112703     347.60769      249.46283      98.144864      99.839079      293.68812     -198.64182     -577321.53     -575079.2       71801.77      -646880.97    
    949000   949000         0.4835787      0.45517041     357.8626       251.79279      106.06981      99.838642      293.87047     -830.73507     -584376.85     -574999.25      71846.351     -646845.6     
    950000   950000         0.48317267     0.47581564     349.99243      248.61034      101.38209      99.838397      292.9244      -383.91497     -579325.61     -574991.85      71615.053     -646606.91    
    951000   951000         0.48157046     0.46920674     352.93309      250.4629       102.47019      99.839391      293.43538     -265.60792     -578135.45     -575137.18      71739.979     -646877.16    
    952000   952000         0.48328787     0.4584526      351.00101      245.75025      105.25076      99.842115      292.88514     -387.28652     -579783.4      -575411.59      71605.455     -647017.05    
    953000   953000         0.48307828     0.46139921     356.48431      251.94937      104.53494      99.843739      293.89131      293.80923     -571838.47     -575155.08      71851.446     -647006.52    
    954000   954000         0.48429981     0.44325135     359.58588      250.49445      109.09144      99.845024      293.43638     -702.01343     -582856.39     -574931.84      71740.223     -646672.07    
    955000   955000         0.48327824     0.44573144     354.86251      246.60727      108.25524      99.844684      293.9525       38.945955     -574645.25     -575084.89      71866.406     -646951.29    
    956000   956000         0.48370468     0.54738745     337.11368      248.88272      88.230962      99.847124      291.86898      184.0751      -573168.34     -575246.24      71357.02      -646603.26    
    957000   957000         0.48259351     0.52498108     344.63877      252.85473      91.784039      99.845695      292.55431     -158.71739     -576910.65     -575119         71524.573     -646643.57    
    958000   958000         0.48546873     0.48900379     350.29492      251.16854      99.126389      99.848202      293.17625     -253.78682     -577975.67     -575110.85      71676.626     -646787.48    
    959000   959000         0.48515143     0.53183941     341.16674      250.08536      91.081386      99.846498      293.82831     -250.1916      -578101.27     -575277.03      71836.043     -647113.07    
    960000   960000         0.48460855     0.45139943     353.0167       245.82288      107.19382      99.848071      293.56543     -280.57262     -578419.92     -575252.73      71771.775     -647024.5     
    961000   961000         0.48250221     0.49025617     351.96611      253.69695      98.26916       99.848377      293.63582     -107.33882     -576402.54     -575190.86      71788.984     -646979.85    
    962000   962000         0.48308527     0.48418509     348.99494      249.3758       99.619145      99.845944      293.08625     -577.61905     -581853.69     -575333.34      71654.623     -646987.96    
    963000   963000         0.4846323      0.47116333     353.29167      250.59245      102.69921      99.844984      293.81355      263.46568     -572030.94     -575005.02      71832.437     -646837.46    
    964000   964000         0.48411973     0.47238367     349.60826      247.28177      102.32649      99.845889      293.97309     -126.39008     -576512.93     -575086.2       71871.441     -646957.64    
    965000   965000         0.48417598     0.49145557     351.40435      253.03798      98.366379      99.845317      293.49555     -216.04377     -577434.53     -574995.76      71754.691     -646750.45    
    966000   966000         0.48249584     0.49633885     351.07745      254.01648      97.060974      99.845694      294.44765     -310.21071     -578555.91     -575054.15      71987.462     -647041.61    
    967000   967000         0.48202731     0.47920465     350.17044      249.73442      100.43603      99.847894      293.65903      239.70799     -572493.79     -575199.69      71794.659     -646994.35    
    968000   968000         0.4822664      0.47940858     347.6166       247.17508      100.44152      99.846319      292.9939       21.847845     -574786.19     -575032.82      71632.046     -646664.86    
    969000   969000         0.48349886     0.48775341     348.04974      249.07317      98.976562      99.847507      294.27944      322.91147     -571335.79     -574980.92      71946.337     -646927.26    
    970000   970000         0.48299069     0.49027518     348.55559      250.19226      98.363337      99.846859      293.88356     -145.22957     -576550.78     -574911.38      71849.551     -646760.94    
    971000   971000         0.48490042     0.45151126     355.88227      248.64977      107.2325       99.848715      293.74905     -172.51206     -576934.76     -574987.39      71816.666     -646804.05    
    972000   972000         0.48510052     0.44493252     352.74537      243.88035      108.86502      99.850624      293.29437      20.493572     -574720.55     -574951.88      71705.505     -646657.39    
    973000   973000         0.48317021     0.47614726     347.29244      245.96892      101.32352      99.850767      293.14802     -254.43384     -577709.08     -574836.95      71669.724     -646506.67    
    974000   974000         0.48120836     0.51721933     344.27378      251.37586      92.897918      99.849884      293.39737     -203.79729     -577204.95     -574904.42      71730.686     -646635.11    
    975000   975000         0.48331442     0.44389966     355.66207      246.94626      108.71582      99.849933      294.0824      -301.23852     -578268.19     -574867.71      71898.165     -646765.88    
    976000   976000         0.48515646     0.44670146     357.06643      248.61949      108.44694      99.851102      295.13254     -134.80429     -576302.13     -574780.42      72154.907     -646935.33    
    977000   977000         0.48479618     0.46385033     356.39457      252.03564      104.35893      99.850052      295.05853      170.62333     -572819.32     -574745.37      72136.812     -646882.18    
    978000   978000         0.48426342     0.5086484      350.51767      255.45314      95.064522      99.851474      294.54365     -412.6801      -579430.78     -574772.32      72010.932     -646783.25    
    979000   979000         0.48445865     0.49325127     344.71547      246.64358      98.071886      99.85183       293.77239     -292.95773     -578144.06     -574837.06      71822.374     -646659.43    
    980000   980000         0.48340462     0.45671546     350.15484      244.46714      105.6877       99.852594      295.24583      30.42095      -574704.9      -575048.3       72182.603     -647230.9     
    981000   981000         0.48293845     0.48870216     352.25867      253.58381      98.674863      99.852516      294.21768     -58.8675       -575473.03     -574808.52      71931.239     -646739.76    
    982000   982000         0.48209118     0.45160879     351.07568      244.48711      106.58858      99.849033      293.12596      100.452       -573829.85     -574963.79      71664.332     -646628.12    
    983000   983000         0.48243012     0.49717704     348.83684      251.94769      96.889146      99.850853      294.40383     -64.413356     -575689.4      -574962.28      71976.748     -646939.03    
    984000   984000         0.48426331     0.49752586     350.94583      253.75773      97.188102      99.849798      294.20784     -110.45939     -576114.37     -574867.47      71928.834     -646796.3     
    985000   985000         0.4827082      0.46152433     352.56598      248.13365      104.43233      99.849271      293.11638     -224.24449     -577584.13     -575052.79      71661.99      -646714.78    
    986000   986000         0.48462931     0.47070324     353.53297      250.72818      102.80479      99.850645      294.13943     -124.30834     -576533.77     -575130.54      71912.107     -647042.65    
    987000   987000         0.48190424     0.48532691     349.50408      250.35425      99.149829      99.854029      293.43805     -45.079381     -575768.95     -575260.08      71740.632     -647000.72    
    988000   988000         0.48442681     0.45386398     354.45047      247.8714       106.57908      99.854927      293.94646     -424.79736     -579870.26     -575075.01      71864.929     -646939.94    
    989000   989000         0.48177891     0.46981388     353.95009      251.55161      102.39849      99.855411      293.2887       197.40397     -572966.84     -575195.2       71704.118     -646899.31    
    990000   990000         0.48138425     0.45557787     355.99985      250.48797      105.51188      99.855528      293.93519      200.66345     -572714.31     -574979.46      71862.175     -646841.64    
    991000   991000         0.48123014     0.46590579     348.11697      244.97957      103.1374       99.853079      294.62277     -264.52707     -578113.11     -575127.05      72030.277     -647157.32    
    992000   992000         0.48274805     0.4092937      365.37269      247.59329      117.7794       99.858234      294.86323     -74.996922     -575826.15     -574979.57      72089.064     -647068.63    
    993000   993000         0.48157928     0.46796074     357.27415      254.50781      102.76635      99.860224      294.46927     -30.684908     -575234.57     -574888.19      71992.747     -646880.94    
    994000   994000         0.48073454     0.51786908     341.88163      249.18441      92.697222      99.857658      293.95873     -131.01523     -576780.05     -575301.11      71867.929     -647169.04    
    995000   995000         0.48183741     0.4565956      353.59098      248.2167       105.37427      99.854077      294.50728      240.5075      -572316.5      -575031.42      72002.04      -647033.46    
    996000   996000         0.48286576     0.47996417     354.90255      254.44193      100.46061      99.856933      294.85887      24.691711     -574757.01     -575035.74      72087.998     -647123.74    
    997000   997000         0.48488605     0.46555681     355.79166      251.78798      104.00367      99.857724      293.37364      153.13571     -573278.54     -575007.18      71724.885     -646732.07    
    998000   998000         0.480321       0.48679996     348.15201      249.61998      98.532032      99.861113      293.29828     -378.16587     -579388.11     -575119.25      71706.461     -646825.71    
    999000   999000         0.48142997     0.53935591     344.3935       255.25788      89.135618      99.860468      293.90107     -111.74913     -576241.1      -574979.65      71853.834     -646833.48    
   1000000   1000000        0.48125415     0.47869721     352.78675      252.39395      100.3928       99.859403      293.10948      202.43725     -572825.44     -575110.62      71660.303     -646770.92    
   1001000   1001000        0.48218207     0.49852508     349.89126      253.30461      96.586651      99.860345      294.70015     -95.272916     -576045.54     -574970.07      72049.195     -647019.26    
   1002000   1002000        0.48287614     0.48452999     351.21474      251.69796      99.516785      99.857629      294.1947       42.125097     -574544.5      -575020.02      71925.621     -646945.64    
   1003000   1003000        0.48189362     0.50692201     346.4042       251.476        94.928205      99.858547      293.68329     -341.03027     -578808.6      -574958.94      71800.589     -646759.53    
   1004000   1004000        0.48478364     0.48275195     348.88327      248.60374      100.27952      99.859261      294.4037      -281.76654     -578028.61     -574847.94      71976.717     -646824.66    
   1005000   1005000        0.48461468     0.46438308     359.39509      255.18513      104.20996      99.859424      294.56594     -373.9137      -578854.43     -574633.58      72016.383     -646649.96    
   1006000   1006000        0.48541454     0.46810273     355.53326      251.97813      103.55513      99.861947      293.98192     -61.756421     -575589.32     -574892.19      71873.599     -646765.79    
   1007000   1007000        0.48454356     0.50795226     345.33028      250.0714       95.258876      99.860911      293.08698     -648.56697     -582398.92     -575077.69      71654.8       -646732.49    
   1008000   1008000        0.48741498     0.52325497     348.38773      255.36528      93.022456      99.862468      293.81731     -38.071455     -575317.99     -574888.23      71833.354     -646721.58    
   1009000   1009000        0.48576361     0.45165498     357.45231      250.04867      107.40364      99.862135      294.60864     -227.23426     -577451.31     -574886.22      72026.821     -646913.04    
   1010000   1010000        0.48673059     0.49227756     347.7112       248.97371      98.737492      99.862742      293.24357     -99.914766     -576348.74     -575220.87      71693.085     -646913.96    
   1011000   1011000        0.48560352     0.47372423     353.13967      250.77367      102.366        99.861824      294.13596     -107.57095     -576336.25     -575121.95      71911.26      -647033.21    
   1012000   1012000        0.48536382     0.52745556     348.92476      257.03437      91.890392      99.859315      294.09911      98.890682     -574092.12     -575208.43      71902.25      -647110.68    
   1013000   1013000        0.48730484     0.47032805     353.46673      250.0028       103.46393      99.85944       292.24163     -102.33662     -576261.33     -575106.12      71448.129     -646554.25    
   1014000   1014000        0.48698994     0.46950951     352.73208      249.15621      103.57587      99.858029      293.56925      33.160057     -574888.36     -575262.68      71772.709     -647035.39    
   1015000   1015000        0.4859206      0.4661111      354.50172      250.40116      104.10056      99.856697      293.64934     -294.50416     -578587.82     -575263.36      71792.289     -647055.65    
   1016000   1016000        0.4870557      0.46963476     351.16242      247.60225      103.56017      99.856047      294.04036     -151.43242     -576922.26     -575212.84      71887.888     -647100.73    
   1017000   1017000        0.48372092     0.52604986     341.26803      249.44792      91.820102      99.855         292.60115     -570.50288     -581987.38     -575547.36      71536.024     -647083.39    
   1018000   1018000        0.48470965     0.48255876     351.74687      251.44627      100.3006       99.85552       293.98802     -102.55943     -576456.4      -575298.68      71875.091     -647173.77    
   1019000   1019000        0.48548818     0.48863107     348.99317      249.78133      99.211838      99.854102      293.82993      109.36366     -574039.63     -575274.17      71836.44      -647110.61    
   1020000   1020000        0.48546401     0.47932799     351.71197      250.57719      101.13478      99.856488      292.94573      59.418536     -574523.63     -575194.36      71620.269     -646814.63    
   1021000   1021000        0.48653019     0.43828185     355.83484      244.98212      110.85272      99.859649      292.5635      -282.22331     -578429.43     -575243.61      71526.819     -646770.43    
Loop time of 46227.4 on 32 procs for 1000000 steps with 82020 atoms

Performance: 1.869 ns/day, 12.841 hours/ns, 21.632 timesteps/s, 1.774 Matom-step/s
99.5% CPU use with 32 MPI tasks x 1 OpenMP threads

MPI task timing breakdown:
Section |  min time  |  avg time  |  max time  |%varavg| %total
---------------------------------------------------------------
Pair    | 22891      | 28221      | 33982      |1836.4 | 61.05
Bond    | 596.56     | 694.36     | 830.83     | 261.4 |  1.50
Kspace  | 7027.9     | 12923      | 18318      |2746.3 | 27.96
Neigh   | 2798.4     | 2804.7     | 2812       |   7.2 |  6.07
Comm    | 715.6      | 849.46     | 971.69     | 244.5 |  1.84
Output  | 0.1921     | 0.21146    | 0.70303    |  19.2 |  0.00
Modify  | 606.74     | 651.84     | 733.02     | 137.8 |  1.41
Other   |            | 82.8       |            |       |  0.18

Nlocal:        2563.12 ave        2731 max        2417 min
Histogram: 2 5 5 2 5 4 1 2 2 4
Nghost:        17323.4 ave       18237 max       16715 min
Histogram: 5 5 9 1 1 3 0 0 4 4
Neighs:    1.56193e+06 ave 1.79107e+06 max 1.39094e+06 min
Histogram: 2 6 4 5 6 1 2 2 0 4

Total # of neighbors = 49981643
Ave neighs/atom = 609.3836
Ave special neighs/atom = 10.922214
Neighbor list builds = 52004
Dangerous builds = 0
Total wall time: 13:06:08
