units real
atom_style full
boundary p p p

# styles
pair_style lj/charmm/coul/long 8.0 12.0
kspace_style pppm 1e-6
dielectric 1.000000
bond_style harmonic
angle_style harmonic
dihedral_style fourier
improper_style cvff
special_bonds amber
pair_modify mix arithmetic
neighbor 2.0 bin
neigh_modify delay 0 every 1 check yes

# system definition
read_data ../final.data
Reading data file ...
  orthogonal box = (-27.956921 -32.298732 -28.85231) to (27.956921 32.298732 28.85231)
  2 by 4 by 4 MPI processor grid
  reading atoms ...
  24020 atoms
  reading velocities ...
  24020 velocities
  scanning bonds ...
  3 = max bonds/atom
  scanning angles ...
  6 = max angles/atom
  scanning dihedrals ...
  27 = max dihedrals/atom
  reading bonds ...
  24010 bonds
  reading angles ...
  48000 angles
  reading dihedrals ...
  71910 dihedrals
Finding 1-2 1-3 1-4 neighbors ...
  special bond factors lj:    0        0        0.5     
  special bond factors coul:  0        0        0.8333333333333334
     4 = max # of 1-2 neighbors
    12 = max # of 1-3 neighbors
    24 = max # of 1-4 neighbors
    28 = max # of special neighbors
  special bonds CPU = 0.071 seconds
  read_data CPU = 0.418 seconds
# do not reset velocities

# vars
variable tLog equal 1000
variable nEvery equal 10
variable nRepeat equal 100
variable boolDump equal 0
variable tDump equal 1000

variable tPreeq equal 10000
variable tPrerun equal 10000
variable tTCrun equal 1000000

variable diffT_delay equal ${tPreeq}+${tPreeq}
variable diffT_delay equal 10000+${tPreeq}
variable diffT_delay equal 10000+10000
# heatflux of 0.05 give good results over 1 ns
variable heat_flux equal 0.05
variable heat_flux_neg equal -1*v_heat_flux

# defining region
variable hot_lo equal (lx*0)+xlo
variable hot_hi equal (lx*0.05)+xlo
variable cold_lo equal (lx*0.50)+xlo
variable cold_hi equal (lx*0.55)+xlo

print "DEBUG: ${hot_lo} ${hot_hi} ${cold_lo} ${cold_hi}"
DEBUG: -27.9569210852141 -25.1612289766927 0 2.79569210852141

# define heating and cooling block regions
region hot block ${hot_lo} ${hot_hi} INF INF INF INF units box
region hot block -27.9569210852141 ${hot_hi} INF INF INF INF units box
region hot block -27.9569210852141 -25.1612289766927 INF INF INF INF units box
region cold block ${cold_lo} ${cold_hi} INF INF INF INF units box
region cold block 0 ${cold_hi} INF INF INF INF units box
region cold block 0 2.79569210852141 INF INF INF INF units box
compute Thot all temp/region hot
compute Tcold all temp/region cold

# STEP 1 - 1st equilibration (nve)
# 1a - thermo output for md2
thermo_style custom step time temp c_Thot c_Tcold press enthalpy etotal ke pe
thermo_modify colname c_Thot Temp_hot colname c_Tcold Temp_cold
thermo_modify flush yes
thermo ${tLog}
thermo 1000

# 1b - nve equilibration
timestep 1.0
fix md2 all nve
run ${tPreeq}
run 10000
PPPM initialization ...
  using 12-bit tables for long-range coulomb (src/kspace.cpp:342)
  G vector (1/distance) = 0.25883856
  grid = 45 50 45
  stencil order = 5
  estimated absolute RMS force accuracy = 0.0003737492
  estimated relative force accuracy = 1.1255346e-06
  using double precision FFTW3
  3d grid and FFT values/proc = 9918 4500
Generated 3 of 3 mixed pair_coeff terms from arithmetic mixing rule
Neighbor list info ...
  update: every = 1 steps, delay = 0 steps, check = yes
  max neighbors/atom: 2000, page size: 100000
  master list distance cutoff = 14
  ghost atom cutoff = 14
  binsize = 7, bins = 8 10 9
  1 neighbor lists, perpetual/occasional/extra = 1 0 0
  (1) pair lj/charmm/coul/long, perpetual
      attributes: half, newton on
      pair build: half/bin/newton
      stencil: half/bin/3d
      bin: standard
Per MPI rank memory allocation (min/avg/max) = 21.64 | 21.99 | 22.2 Mbytes
   Step          Time           Temp         Temp_hot      Temp_cold        Press         Enthalpy        TotEng         KinEng         PotEng    
         0   0              299.31856      292.27218      301.43478      529.8002      -86442.089     -88052.488      21430.034     -109482.52    
      1000   1000           298.4305       303.18282      306.97046      197.31813     -87453.057     -88052.832      21366.453     -109419.28    
      2000   2000           298.89996      294.84601      309.09691     -303.14149     -88979.205     -88057.766      21400.064     -109457.83    
      3000   3000           301.61727      302.92071      312.77015     -130.11563     -88459.098     -88063.594      21594.613     -109658.21    
      4000   4000           298.25845      300.08196      295.61206      106.7854      -87731.653     -88056.242      21354.134     -109410.38    
      5000   5000           298.84073      295.33704      290.12904     -284.27472     -88911.752     -88047.661      21395.824     -109443.48    
      6000   6000           299.47001      301.61039      292.53451      434.12065     -86743.031     -88062.599      21440.878     -109503.48    
      7000   7000           298.37277      290.83349      296.28388     -35.045455     -88161.82      -88055.295      21362.32      -109417.61    
      8000   8000           298.86132      302.6492       294.46145      249.56809     -87298.095     -88056.691      21397.298     -109453.99    
      9000   9000           298.65159      301.26351      295.64725     -32.826304     -88154.793     -88055.013      21382.282     -109437.3     
     10000   10000          299.44555      298.60945      289.79724      210.20371     -87419.091     -88058.033      21439.126     -109497.16    
Loop time of 102.546 on 32 procs for 10000 steps with 24020 atoms

Performance: 8.425 ns/day, 2.849 hours/ns, 97.517 timesteps/s, 2.342 Matom-step/s
99.4% CPU use with 32 MPI tasks x 1 OpenMP threads

MPI task timing breakdown:
Section |  min time  |  avg time  |  max time  |%varavg| %total
---------------------------------------------------------------
Pair    | 63.345     | 69.005     | 73.647     |  33.9 | 67.29
Bond    | 1.4259     | 1.5905     | 1.8043     |   6.1 |  1.55
Kspace  | 17.125     | 21.732     | 27.572     |  61.0 | 21.19
Neigh   | 4.0977     | 4.1348     | 4.1662     |   1.1 |  4.03
Comm    | 4.6464     | 5.0723     | 5.4412     |  10.3 |  4.95
Output  | 0.0012027  | 0.0016056  | 0.0043226  |   1.4 |  0.00
Modify  | 0.038308   | 0.042399   | 0.045952   |   0.9 |  0.04
Other   |            | 0.9674     |            |       |  0.94

Nlocal:        750.625 ave         797 max         715 min
Histogram: 5 1 3 4 8 3 3 2 1 2
Nghost:          11324 ave       11448 max       11165 min
Histogram: 2 0 2 4 3 7 5 4 2 3
Neighs:         497018 ave      534126 max      462194 min
Histogram: 4 4 1 2 5 2 5 5 1 3

Total # of neighbors = 15904587
Ave neighs/atom = 662.13934
Ave special neighs/atom = 11.983347
Neighbor list builds = 370
Dangerous builds = 0
unfix md2

# STEP 2 - MD for thermal conductivity
# 2a - impose nve
fix md3 all nve

# 2b - impose heat flux
fix hot all ehex 1 ${heat_flux} region hot
fix hot all ehex 1 0.05 region hot
fix cold all ehex 1 ${heat_flux_neg} region cold
fix cold all ehex 1 -0.05 region cold

# 2c - calculate thermal profile
compute ke all ke/atom
variable temp atom c_ke/(1.5*0.001987204)

compute layers all chunk/atom bin/1d x lower 0.05 units reduced
fix bins all ave/chunk ${nEvery} ${nRepeat} ${tLog} layers v_temp file Tprofile_x_ehex.dat
fix bins all ave/chunk 10 ${nRepeat} ${tLog} layers v_temp file Tprofile_x_ehex.dat
fix bins all ave/chunk 10 100 ${tLog} layers v_temp file Tprofile_x_ehex.dat
fix bins all ave/chunk 10 100 1000 layers v_temp file Tprofile_x_ehex.dat

variable tdiff equal c_Thot-c_Tcold
fix ave all ave/time ${nEvery} ${nRepeat} ${tLog} v_tdiff ave running start ${diffT_delay}
fix ave all ave/time 10 ${nRepeat} ${tLog} v_tdiff ave running start ${diffT_delay}
fix ave all ave/time 10 100 ${tLog} v_tdiff ave running start ${diffT_delay}
fix ave all ave/time 10 100 1000 v_tdiff ave running start ${diffT_delay}
fix ave all ave/time 10 100 1000 v_tdiff ave running start 20000

# pre define kappa
variable kappa_inst equal 0
variable kappa equal 0

# 2d - thermo out
# dump dump_tc all custom 1000 dump.tc_x_ehex.lammpstrj id type mol x y z ix iy iz vx vy vz
thermo_style custom step time v_kappa v_kappa_inst c_Thot c_Tcold v_tdiff f_ave temp press enthalpy etotal ke pe
WARNING: New thermo_style command, previous thermo_modify settings will be lost (src/output.cpp:904)
thermo_modify colname v_kappa kappa colname v_kappa_inst kappa_inst colname c_Thot Temp_hot colname c_Tcold Temp_cold colname v_tdiff dTemp_step colname f_ave dTemp
thermo_modify flush yes
thermo ${tLog}
thermo 1000

# 2e - prerun
run ${tPrerun}
run 10000
PPPM initialization ...
  using 12-bit tables for long-range coulomb (src/kspace.cpp:342)
  G vector (1/distance) = 0.25883856
  grid = 45 50 45
  stencil order = 5
  estimated absolute RMS force accuracy = 0.0003737492
  estimated relative force accuracy = 1.1255346e-06
  using double precision FFTW3
  3d grid and FFT values/proc = 9918 4500
Generated 3 of 3 mixed pair_coeff terms from arithmetic mixing rule
Per MPI rank memory allocation (min/avg/max) = 22.14 | 22.56 | 22.7 Mbytes
   Step          Time          kappa        kappa_inst      Temp_hot      Temp_cold      dTemp_step       dTemp           Temp          Press         Enthalpy        TotEng         KinEng         PotEng    
     10000   10000          0              0              298.66825      289.79724      8.8710052      0              299.44555      210.20371     -87419.091     -88058.033      21439.126     -109497.16    
     11000   11000          0              0              305.38826      297.08304      8.3052253      0              298.82036      304.53688     -87130.882     -88056.563      21394.365     -109450.93    
     12000   12000          0              0              295.79587      296.28534     -0.48947361     0              298.26211     -246.68459     -88808.528     -88058.697      21354.397     -109413.09    
     13000   13000          0              0              308.32224      307.98284      0.33940425     0              299.65126     -111.28373     -88396.605     -88058.344      21453.855     -109512.2     
     14000   14000          0              0              312.87316      280.68714      32.186019      0              297.6584      -784.23847     -90437.24      -88053.442      21311.174     -109364.62    
     15000   15000          0              0              316.34808      290.42241      25.92567       0              299.59357      492.89579     -86558.825     -88057.048      21449.724     -109506.77    
     16000   16000          0              0              314.36976      280.13354      34.236224      0              295.83463      455.29368     -86665.647     -88049.573      21180.599     -109230.17    
     17000   17000          0              0              323.56486      290.27329      33.291566      0              297.69979     -636.02997     -89988.723     -88055.425      21314.137     -109369.56    
     18000   18000          0              0              320.17341      276.18449      43.988926      0              297.6404      -450.31653     -89419.269     -88050.472      21309.885     -109360.36    
     19000   19000          0              0              329.78602      295.71858      34.067441      0              299.80957     -711.40693     -90221.44      -88059.023      21465.189     -109524.21    
     20000   20000          0              0              324.40234      278.16033      46.242013      31.282324      299.15038     -419.21362     -89329.929     -88055.673      21417.994     -109473.67    
Loop time of 101.989 on 32 procs for 10000 steps with 24020 atoms

Performance: 8.471 ns/day, 2.833 hours/ns, 98.049 timesteps/s, 2.355 Matom-step/s
99.4% CPU use with 32 MPI tasks x 1 OpenMP threads

MPI task timing breakdown:
Section |  min time  |  avg time  |  max time  |%varavg| %total
---------------------------------------------------------------
Pair    | 63.036     | 68.071     | 73.09      |  32.1 | 66.74
Bond    | 1.4378     | 1.5871     | 1.7954     |   5.9 |  1.56
Kspace  | 16.681     | 21.648     | 26.722     |  57.2 | 21.23
Neigh   | 4.0984     | 4.1231     | 4.1448     |   0.7 |  4.04
Comm    | 4.6476     | 5.062      | 5.337      |   8.8 |  4.96
Output  | 0.0016751  | 0.0018373  | 0.0029255  |   0.5 |  0.00
Modify  | 0.99419    | 1.2437     | 1.57       |  14.7 |  1.22
Other   |            | 0.2534     |            |       |  0.25

Nlocal:        750.625 ave         790 max         714 min
Histogram: 4 3 1 4 4 5 3 3 2 3
Nghost:        11333.2 ave       11454 max       11204 min
Histogram: 2 0 3 6 6 4 3 2 2 4
Neighs:         497014 ave      535751 max      453932 min
Histogram: 2 4 1 3 2 4 6 6 2 2

Total # of neighbors = 15904459
Ave neighs/atom = 662.13401
Ave special neighs/atom = 11.983347
Neighbor list builds = 370
Dangerous builds = 0

# 2f - calc kappa
variable kappa_inst equal (${heat_flux}/(ly*lz)/2.0)*(lx/2.0)/v_tdiff*69478.5785
variable kappa_inst equal (0.05/(ly*lz)/2.0)*(lx/2.0)/v_tdiff*69478.5785
variable kappa equal (${heat_flux}/(ly*lz)/2.0)*(lx/2.0)/f_ave*69478.5785
variable kappa equal (0.05/(ly*lz)/2.0)*(lx/2.0)/f_ave*69478.5785

# 2g - md run for kappa calculation
# optional traj dump
if "${boolDump} == 1" then     "dump tc_dump all atom ${tDump} dump.tc_x.lammpstrj"
run ${tTCrun}
run 1000000
PPPM initialization ...
  using 12-bit tables for long-range coulomb (src/kspace.cpp:342)
  G vector (1/distance) = 0.25883856
  grid = 45 50 45
  stencil order = 5
  estimated absolute RMS force accuracy = 0.0003737492
  estimated relative force accuracy = 1.1255346e-06
  using double precision FFTW3
  3d grid and FFT values/proc = 9918 4500
Generated 3 of 3 mixed pair_coeff terms from arithmetic mixing rule
Per MPI rank memory allocation (min/avg/max) = 22.39 | 22.82 | 22.95 Mbytes
   Step          Time          kappa        kappa_inst      Temp_hot      Temp_cold      dTemp_step       dTemp           Temp          Press         Enthalpy        TotEng         KinEng         PotEng    
     20000   20000          0.41644267     0.27936781     324.79167      278.16033      46.631337      31.282324      299.15038     -419.21352     -89329.929     -88055.673      21417.994     -109473.67    
     21000   21000          0.42374232     0.47843353     315.86851      288.63945      27.229058      30.743435      299.14566     -507.53883     -89598.401     -88055.669      21417.655     -109473.32    
     22000   22000          0.43938051     0.4396378      316.28032      286.64844      29.63188       29.649231      298.38361     -310.28592     -88995.758     -88052.603      21363.096     -109415.7     
     23000   23000          0.46061198     0.79539895     308.94058      292.56226      16.378315      28.282579      300.67383     -165.49771     -88560.671     -88057.618      21527.066     -109584.68    
     24000   24000          0.44618825     0.26291854     331.28298      281.7342       49.548786      29.196857      298.37386      339.19485     -87022.225     -88053.253      21362.398     -109415.65    
     25000   25000          0.43851163     0.45889957     317.21375      288.82563      28.388117      29.70798       299.91265      116.62278     -87706.696     -88061.187      21472.569     -109533.76    
     26000   26000          0.43069597     0.26665025     322.33749      273.48213      48.855361      30.247078      298.25307     -45.854952     -88192.986     -88053.604      21353.749     -109407.35    
     27000   27000          0.4184486      0.23193626     327.60313      271.43556      56.167564      31.132365      298.49083     -582.68516     -89822.769     -88051.62       21370.773     -109422.39    
     28000   28000          0.39377116     0.38030169     317.99573      283.74057      34.255158      33.083414      298.62987      412.51835     -86793.498     -88047.403      21380.727     -109428.13    
     29000   29000          0.38456885     0.38511937     317.2662       283.43956      33.82664       33.875064      299.27985      370.85587     -86926.617     -88053.883      21427.263     -109481.15    
     30000   30000          0.36954374     0.16266439     342.10967      262.02272      80.086949      35.252375      298.8706       140.75409     -87631.22      -88059.061      21397.962     -109457.02    
     31000   31000          0.35643076     0.27910769     334.88776      288.21296      46.674796      36.5493        299.94371     -699.01838     -90183.776     -88059.016      21474.793     -109533.81    
     32000   32000          0.35020413     0.31474386     317.17013      275.77999      41.390147      37.199146      299.54577     -567.79876     -89786.498     -88060.598      21446.302     -109506.9     
     33000   33000          0.34282872     0.24034576     329.44777      275.24546      54.202307      37.999426      298.7674      -241.9118      -88788.124     -88052.8        21390.573     -109443.37    
     34000   34000          0.34101995     0.44854448     310.40439      281.3609       29.043484      38.200975      301.0917      -325.48231     -89050.05      -88060.703      21556.985     -109617.69    
     35000   35000          0.33565801     0.28113491     322.65648      276.31825      46.338231      38.811213      299.37945     -258.10884     -88839.083     -88054.526      21434.394     -109488.92    
     36000   36000          0.3321449      0.26322209     325.35742      275.86578      49.491646      39.221721      299.99062      316.6214      -87096.242     -88058.655      21478.151     -109536.81    
     37000   37000          0.329342       0.3021723      319.57259      276.46045      43.112139      39.555522      299.80022      990.02205     -85050.667     -88059.972      21464.52      -109524.49    
     38000   38000          0.32747864     0.27444226     326.65364      279.18539      47.468253      39.780594      299.12467      779.37599     -85684.467     -88053.485      21416.153     -109469.64    
     39000   39000          0.3241767      0.36509694     315.67851      279.99677      35.681741      40.185783      299.10225     -23.059621     -88126.236     -88056.143      21414.547     -109470.69    
     40000   40000          0.32091242     0.24888167     322.07941      269.73609      52.343327      40.594547      299.58795     -306.40281     -88986.775     -88055.422      21449.322     -109504.74    
     41000   41000          0.31697019     0.2711696      321.58741      273.54628      48.041133      41.099431      298.7087      -38.057739     -88165.21      -88049.528      21386.371     -109435.9     
     42000   42000          0.31376117     0.22279653     332.3394       273.86769      58.471711      41.519779      300.0949      -185.77088     -88624         -88059.324      21485.617     -109544.94    
     43000   43000          0.31151448     0.23322825     322.91655      267.06013      55.856418      41.819227      297.7917      -124.11126     -88435.536     -88058.283      21320.717     -109379       
     44000   44000          0.31028549     0.33894379     311.29997      272.865        38.43497       41.984866      301.05007      401.19634     -86847.79      -88067.28       21554.004     -109621.28    
     45000   45000          0.30935724     0.27141357     327.05586      279.05791      47.997948      42.110844      297.94649      548.45566     -86386.219     -88053.323      21331.8       -109385.12    
     46000   46000          0.30891767     0.28137364     327.29215      280.99324      46.298916      42.170765      301.10417     -99.681342     -88366.105     -88063.111      21557.877     -109620.99    
     47000   47000          0.30812354     0.24099835     320.2119       266.15637      54.055534      42.279452      298.61488     -1076.3028     -91326.763     -88055.196      21379.654     -109434.85    
     48000   48000          0.30694865     0.25121238     326.35969      274.50199      51.857694      42.441283      298.52238      413.43536     -86794.951     -88051.643      21373.031     -109424.67    
     49000   49000          0.30685305     0.31576102     315.85226      274.59545      41.256816      42.454506      300.41889      7.0319014     -88038.13      -88059.504      21508.814     -109568.32    
     50000   50000          0.30563345     0.31654364     312.4104       271.25559      41.154813      42.623916      299.46918      103.37364     -87744.567     -88058.785      21440.818     -109499.6     
     51000   51000          0.30439403     0.22135753     321.04627      262.19444      58.851824      42.79747       299.92051      606.3588      -86214.223     -88057.331      21473.132     -109530.46    
     52000   52000          0.30334527     0.21195361     333.89127      272.42832      61.462951      42.945435      298.11623     -31.463537     -88148.118     -88052.48       21343.952     -109396.43    
     53000   53000          0.30129811     0.31367211     313.02677      271.4952       41.531568      43.237226      298.45179     -670.93714     -90090.456     -88051.053      21367.977     -109419.03    
     54000   54000          0.2991809      0.24141008     332.31225      278.34891      53.963342      43.543203      299.07027      123.92575     -87684.444     -88061.133      21412.258     -109473.39    
     55000   55000          0.29802457     0.30025018     321.54873      278.1606       43.388132      43.712149      298.68379     -413.2218      -89314.402     -88058.359      21384.588     -109442.95    
     56000   56000          0.29660464     0.25908707     317.80055      267.51902      50.28153       43.921412      299.75875     -263.72215     -88860.91      -88059.291      21461.551     -109520.84    
     57000   57000          0.29459176     0.24995589     323.54981      271.43144      52.118373      44.221518      298.33445     -95.078326     -88335.55      -88046.546      21359.576     -109406.12    
     58000   58000          0.2936394      0.26371827     325.715        276.31647      49.398529      44.36494       300.65679     -41.911404     -88185.607     -88058.212      21525.847     -109584.06    
     59000   59000          0.2917246      0.29511838     324.28596      280.14335      44.142606      44.656139      299.92676      272.37456     -87223.805     -88051.724      21473.579     -109525.3     
     60000   60000          0.29035566     0.28291989     330.20571      284.15984      46.045877      44.86668       298.6192       526.54623     -86450.137     -88050.645      21379.963     -109430.61    
     61000   61000          0.28957701     0.24700937     331.46475      278.72466      52.740083      44.987323      298.28621     -30.340795     -88143.451     -88051.226      21356.123     -109407.35    
     62000   62000          0.28935333     0.276721       324.14844      277.07108      47.077361      45.0221        298.98742     -668.56067     -90086.533     -88054.354      21406.326     -109460.68    
     63000   63000          0.28955499     0.36686344     314.4464       278.93647      35.509928      44.990744      297.88384     -425.70595     -89347.757     -88053.767      21327.314     -109381.08    
     64000   64000          0.28984548     0.2111751      341.06503      279.37549      61.68954       44.945654      300.80785     -488.42803     -89546.667     -88062.025      21536.662     -109598.69    
     65000   65000          0.29024532     0.32354971     323.8888       283.62515      40.263657      44.883737      300.32782      736.71512     -85816.334     -88055.678      21502.293     -109557.97    
     66000   66000          0.2902949      0.22987439     331.04475      274.37339      56.671361      44.876071      298.89509      529.61104     -86446.914     -88056.737      21399.716     -109456.45    
     67000   67000          0.2893774      0.27780552     323.29337      276.39979      46.893577      45.018354      295.46925     -443.18199     -89398.876     -88051.765      21154.439     -109206.2     
     68000   68000          0.28843761     0.22505156     328.6486       270.76278      57.885822      45.165034      297.47521     -676.87328     -90110.01      -88052.563      21298.058     -109350.62    
     69000   69000          0.28779398     0.27484831     322.57863      275.1805       47.398125      45.266042      300.60205     -499.61191     -89578.482     -88059.845      21521.928     -109581.77    
     70000   70000          0.2871813      0.23169743     331.41388      275.18842      56.22546       45.362615      300.15574     -437.64827     -89390.914     -88060.624      21489.973     -109550.6     
     71000   71000          0.28650572     0.24311976     329.76608      276.18223      53.583857      45.469578      298.67917      74.320004     -87827.653     -88053.558      21384.257     -109437.82    
     72000   72000          0.28644383     0.32607978     317.10443      277.15319      39.951249      45.479403      297.82184      174.9342      -87515.125     -88046.861      21322.875     -109369.74    
     73000   73000          0.28567945     0.1830192      339.84754      268.66761      71.179934      45.601091      300.61323     -532.86207     -89675.251     -88055.546      21522.728     -109578.27    
     74000   74000          0.28506023     0.20114457     331.73587      266.97004      64.765828      45.700147      299.10149     -1399.4445     -92310.855     -88057.056      21414.493     -109471.55    
     75000   75000          0.28406159     0.22144709     324.96085      266.13282      58.828024      45.86081       297.97878     -656.75882     -90048.339     -88052.033      21334.112     -109386.14    
     76000   76000          0.28255759     0.21769756     332.40314      272.56189      59.841251      46.104919      297.24676      352.12388     -86977.138     -88047.466      21281.702     -109329.17    
     77000   77000          0.28187886     0.19674046     330.78442      264.56878      66.215634      46.215933      297.11949     -319.56273     -89021.671     -88050.318      21272.589     -109322.91    
     78000   78000          0.28088646     0.20301035     330.44453      266.27394      64.170593      46.379218      298.38113     -27.219488     -88137.987     -88055.25       21362.919     -109418.17    
     79000   79000          0.28085628     0.20951657     335.2224       273.04453      62.177872      46.384202      299.26512     -474.43762     -89500.269     -88058.153      21426.208     -109484.36    
     80000   80000          0.28076707     0.25093695     332.50429      280.58967      51.914612      46.39894       299.04752     -299.23304     -88965.91      -88056.351      21410.629     -109466.98    
     81000   81000          0.28056636     0.23384625     337.00428      281.29547      55.708802      46.432133      299.26183     -539.20088     -89695.206     -88056.233      21425.973     -109482.21    
     82000   82000          0.27968978     0.21390873     335.32056      274.41937      60.901183      46.577656      299.30808      993.85962     -85036.41      -88057.38       21429.284     -109486.66    
     83000   83000          0.27912903     0.27442875     321.38976      273.91917      47.47059       46.671228      298.20635     -662.81703     -90067.96      -88053.239      21350.405     -109403.64    
     84000   84000          0.27863302     0.36399866     320.08857      284.29917      35.789402      46.754309      298.36659     -132.99927     -88455.476     -88051.207      21361.878     -109413.08    
     85000   85000          0.27764509     0.24083293     329.59324      275.50057      54.092663      46.920673      299.9011      -79.384498     -88300.826     -88059.527      21471.742     -109531.27    
     86000   86000          0.27723875     0.32093953     311.8078       271.21668      40.591118      46.989443      299.02635     -10.401052     -88086.474     -88054.859      21409.113     -109463.97    
     87000   87000          0.27719442     0.27480023     324.67982      277.27341      47.406418      46.996957      298.79074      611.25125     -86193.914     -88051.894      21392.244     -109444.14    
     88000   88000          0.27729411     0.27014096     329.17432      280.95026      48.224063      46.980063      300.24295     -63.019731     -88246.842     -88055.286      21496.217     -109551.5     
     89000   89000          0.27733986     0.27744362     327.30193      280.34718      46.954745      46.972312      297.93922      134.18399     -87648.533     -88056.403      21331.279     -109387.68    
     90000   90000          0.27700947     0.28201453     321.71021      275.51651      46.193699      47.028337      299.22999     -553.94975     -89741.618     -88057.814      21423.693     -109481.51    
     91000   91000          0.276931       0.25390843     331.31102      280.00397      51.307058      47.041663      299.03298      304.89375     -87128.068     -88054.834      21409.588     -109464.42    
     92000   92000          0.27699765     0.26689122     313.87461      265.06336      48.811251      47.030343      297.45589      436.20243     -86732.903     -88058.798      21296.674     -109355.47    
     93000   93000          0.27723791     0.25051816     323.34229      271.34089      52.001398      46.989586      299.16975     -83.307249     -88307.176     -88053.953      21419.38      -109473.33    
     94000   94000          0.27690684     0.21946571     322.83079      263.47166      59.359133      47.045766      299.4078       144.69082     -87623.796     -88063.603      21436.424     -109500.03    
     95000   95000          0.27653854     0.24505878     325.92312      272.76324      53.159877      47.108422      298.78272     -180.94941     -88604.064     -88054.045      21391.67      -109445.71    
     96000   96000          0.2755874      0.22419369     337.37068      279.26336      58.107319      47.27101       299.78913      385.7257      -86886.685     -88059.149      21463.725     -109522.87    
     97000   97000          0.27468324     0.19601807     332.21533      265.75567      66.45966       47.426609      299.95375     -299.93181     -88969.1       -88057.417      21475.511     -109532.93    
     98000   98000          0.27412781     0.24437702     325.63169      272.32351      53.308181      47.522703      297.98484     -534.31794     -89682.287     -88058.156      21334.545     -109392.7     
     99000   99000          0.27346611     0.17449187     342.89873      268.24027      74.658462      47.637693      298.88997     -427.20449     -89355.117     -88056.572      21399.349     -109455.92    
    100000   100000         0.27255806     0.23825465     337.34237      282.66434      54.678029      47.796401      300.01639     -321.91388     -89035.46      -88056.96       21479.997     -109536.96    
    101000   101000         0.27214338     0.24752993     329.34195      276.71279      52.629168      47.869231      297.58929      98.489663     -87755.172     -88054.545      21306.226     -109360.77    
    102000   102000         0.27159939     0.27716232     327.92455      280.92215      47.002401      47.965109      299.69375      1098.323      -84720.054     -88058.554      21456.897     -109515.45    
    103000   103000         0.27118809     0.22925532     328.57197      271.74757      56.824394      48.037856      300.01473      471.86942     -86623.133     -88057.443      21479.877     -109537.32    
    104000   104000         0.27110974     0.27899592     326.0001       279.30661      46.693494      48.051739      298.88331     -673.29513     -90101.506     -88054.935      21398.872     -109453.81    
    105000   105000         0.27108889     0.26569209     327.72018      278.68863      49.031548      48.055435      298.95945      68.046213     -87845.618     -88052.453      21404.324     -109456.78    
    106000   106000         0.27095829     0.26147934     321.68016      271.85866      49.821505      48.078597      299.8879       522.58157     -86465.945     -88054.402      21470.797     -109525.2     
    107000   107000         0.27094557     0.33290911     320.09833      280.96665      39.131685      48.080855      299.92835     -427.97888     -89357.227     -88056.328      21473.693     -109530.02    
    108000   108000         0.2707843      0.2075842      343.07682      280.32014      62.756677      48.10949       300.62376      543.62875     -86404.886     -88057.319      21523.482     -109580.8     
    109000   109000         0.27035551     0.24124882     329.09481      275.09539      53.999412      48.185792      297.69242     -574.32106     -89795.644     -88049.918      21313.609     -109363.53    
    110000   110000         0.27002944     0.25020142     323.34457      271.27734      52.067228      48.243978      298.82381     -19.135561     -88111.67      -88053.505      21394.612     -109448.12    
    111000   111000         0.26976592     0.44916513     324.17594      295.17258      29.003352      48.291105      300.02603     -1074.5951     -91323.556     -88057.181      21480.687     -109537.87    
    112000   112000         0.26999391     0.25889594     329.88644      279.56779      50.318651      48.250327      300.28852      250.91078     -87294.798     -88057.475      21499.48      -109556.96    
    113000   113000         0.27006825     0.28165907     327.79861      281.54661      46.251997      48.237046      298.26456     -1168.0383     -91600.989     -88050.58       21354.572     -109405.15    
    114000   114000         0.26999678     0.28457474     324.61506      278.83694      45.778112      48.249815      300.18507     -588.39803     -89844.845     -88056.331      21492.074     -109548.4     
    115000   115000         0.26966322     0.22178545     334.25777      275.51949      58.738274      48.309497      298.24186      563.91909     -86343.512     -88057.62       21352.947     -109410.57    
    116000   116000         0.26970864     0.31557169     327.92764      286.64607      41.28157       48.301361      298.70532     -186.15536     -88620.926     -88055.082      21386.129     -109441.21    
    117000   117000         0.26942468     0.1866433      340.14832      270.35051      69.797814      48.352268      299.52267     -403.16179     -89282.059     -88056.595      21444.648     -109501.24    
    118000   118000         0.26923053     0.25872719     333.3127       282.96123      50.351471      48.387137      299.41204     -232.91614     -88763.256     -88055.276      21436.727     -109492       
    119000   119000         0.26925398     0.2229902      333.04887      274.62795      58.420928      48.382923      296.48135     -398.04697     -89256.86      -88046.943      21226.902     -109273.84    
    120000   120000         0.2690071      0.25721567     333.29787      282.65051      50.647358      48.427327      299.83793      426.66881     -86759.492     -88056.409      21467.219     -109523.63    
    121000   121000         0.26880724     0.23394676     341.92009      286.23522      55.684868      48.463332      299.23843      522.8636      -86463.232     -88052.546      21424.297     -109476.84    
    122000   122000         0.26845458     0.24119114     331.65987      277.64754      54.012327      48.526997      299.59324     -31.270949     -88149.598     -88054.546      21449.701     -109504.25    
    123000   123000         0.26843979     0.2905422      325.63817      280.8003       44.837874      48.529671      297.99253      88.14586      -87783.457     -88051.388      21335.096     -109386.48    
    124000   124000         0.26848024     0.28055816     315.19289      268.7594       46.43349       48.522359      297.14709     -300.28452     -88962.44      -88049.685      21274.566     -109324.25    
    125000   125000         0.26872774     0.19304793     342.76858      275.2864       67.482178      48.477669      298.85072      202.16438     -87439.111     -88053.617      21396.539     -109450.16    
    126000   126000         0.26885671     0.32138722     323.75034      283.21576      40.534576      48.454414      299.20306     -472.09228     -89494.201     -88059.214      21421.765     -109480.98    
    127000   127000         0.26897819     0.26277815     326.66591      277.09066      49.575258      48.43253       300.72081     -386.29559     -89231.827     -88057.63       21530.43      -109588.06    
    128000   128000         0.26894188     0.25234748     326.60508      274.98065      51.624428      48.43907       299.70459      215.04537     -87400.411     -88054.071      21457.673     -109511.74    
    129000   129000         0.26894714     0.27705176     326.60782      279.58667      47.021157      48.438122      302.06334     -259.35887     -88849.132     -88060.776      21626.55      -109687.33    
    130000   130000         0.26907155     0.34639387     321.95734      284.34901      37.608329      48.415727      299.92245      125.66087     -87673.762     -88055.725      21473.271     -109529       
    131000   131000         0.26918817     0.23086044     326.81788      270.38858      56.429306      48.394751      298.67168      431.48428     -86743.166     -88054.721      21383.721     -109438.44    
    132000   132000         0.26913862     0.20616475     331.74298      268.55422      63.188759      48.403661      298.67946     -405.6895      -89288.042     -88054.895      21384.277     -109439.17    
    133000   133000         0.26896767     0.33671882     314.76011      276.07116      38.68894       48.434425      297.32203     -407.69195     -89294.96      -88055.726      21287.091     -109342.82    
    134000   134000         0.26882229     0.26820806     316.31471      267.74311      48.5716        48.460619      297.06743     -916.613       -90840.866     -88054.698      21268.863     -109323.56    
    135000   135000         0.26866764     0.28152972     318.64027      272.36703      46.273248      48.488514      299.33689     -712.82327     -90223.415     -88056.693      21431.347     -109488.04    
    136000   136000         0.26862528     0.27374542     317.10681      269.51772      47.589087      48.49616       299.66784      19.719408     -87997.201     -88057.141      21455.042     -109512.18    
    137000   137000         0.26858337     0.30471434     308.3339       265.58142      42.752482      48.503727      299.64375      195.38541     -87467.16      -88061.06       21453.317     -109514.38    
    138000   138000         0.26886769     0.28522981     315.44018      269.76721      45.672977      48.452436      299.99482      297.16484     -87151.116     -88054.389      21478.452     -109532.84    
    139000   139000         0.26895774     0.27475872     321.02152      273.60794      47.413579      48.436213      299.17455     -401.10708     -89278.288     -88059.069      21419.724     -109478.79    
    140000   140000         0.26894138     0.2377402      323.94566      269.14932      54.796346      48.43916       297.09518      320.38926     -87080.236     -88054.102      21270.849     -109324.95    
    141000   141000         0.26882221     0.17574664     337.30832      263.1829       74.125424      48.460633      299.07173      126.25236     -87672.114     -88055.875      21412.363     -109468.24    
    142000   142000         0.26882499     0.49244591     309.52615      283.07188      26.454265      48.460132      300.70568      280.02334     -87207.629     -88058.798      21529.347     -109588.14    
    143000   143000         0.26900405     0.31331228     316.16979      274.59052      41.579266      48.427875      298.61855     -14.788891     -88102.876     -88057.923      21379.916     -109437.84    
    144000   144000         0.26893492     0.22084962     330.35431      271.36714      58.987172      48.440324      297.79949     -787.41886     -90445.51      -88052.045      21321.275     -109373.32    
    145000   145000         0.26898266     0.2816186      311.80029      265.54165      46.258643      48.431727      300.03753      677.2141      -85997.004     -88055.487      21481.51      -109537       
    146000   146000         0.26883171     0.30805845     320.12669      277.8383       42.288386      48.458921      301.20681     -884.32602     -90746.949     -88058.921      21565.226     -109624.15    
    147000   147000         0.26872077     0.25738193     317.61052      266.99588      50.614644      48.478926      298.20606      868.92979     -85409.3       -88050.528      21350.384     -109400.91    
    148000   148000         0.26845808     0.2470205      330.60021      277.8625       52.737705      48.526363      299.08867     -424.00154     -89343.773     -88054.964      21413.575     -109468.54    
    149000   149000         0.26843112     0.45807794     304.21717      275.77814      28.439035      48.531238      299.39359     -462.71466     -89457.781     -88051.298      21435.406     -109486.7     
    150000   150000         0.26865721     0.32633353     323.31914      283.39896      39.920183      48.490397      300.4661      -666.91105     -90083.82      -88056.655      21512.194     -109568.85    
    151000   151000         0.26880639     0.2935763      326.4455       282.07103      44.374477      48.463485      299.51844     -217.09828     -88715.482     -88055.583      21444.345     -109499.93    
    152000   152000         0.26905247     0.28554774     327.0194       281.39727      45.622125      48.419159      299.07531      262.51483     -87259.968     -88057.917      21412.619     -109470.54    
    153000   153000         0.2691858      0.28200599     327.48984      281.29474      46.195098      48.395176      300.3473      -181.03945     -88608.109     -88057.815      21503.688     -109561.5     
    154000   154000         0.26920102     0.23480353     333.30079      277.81911      55.481682      48.392441      299.36827     -370.56622     -89179.505     -88053.12       21433.594     -109486.71    
    155000   155000         0.26926466     0.22386895     329.65927      271.46766      58.19161       48.381003      298.19673     -475.36417     -89495.927     -88050.994      21349.716     -109400.71    
    156000   156000         0.26923427     0.20803607     333.80909      271.18873      62.620366      48.386465      301.23323      229.9973      -87355.073     -88054.181      21567.118     -109621.3     
    157000   157000         0.26893587     0.27143998     325.31803      277.32475      47.993278      48.440152      300.49623      626.3952      -86156.431     -88060.443      21514.351     -109574.79    
    158000   158000         0.26858578     0.24949815     328.71295      276.49896      52.213993      48.503292      297.73558     -1.5692188     -88061.437     -88056.667      21316.699     -109373.37    
    159000   159000         0.26857736     0.27266688     323.7075       275.93018      47.777326      48.504813      299.28624     -287.13872     -88928.673     -88055.876      21427.721     -109483.6     
    160000   160000         0.26864641     0.32403311     319.38788      279.18429      40.20359       48.492345      299.72173     -506.12461     -89594.345     -88055.911      21458.9       -109514.81    
    161000   161000         0.26874978     0.30657306     322.35716      279.86389      42.493278      48.473694      297.74947      46.37907      -87911.142     -88052.117      21317.694     -109369.81    
    162000   162000         0.26902981     0.43407657     314.20581      284.1943       30.011513      48.423238      299.59875      286.79225     -87185.338     -88057.082      21450.095     -109507.18    
    163000   163000         0.26908148     0.29943982     312.80471      269.29916      43.505551      48.413939      297.27413     -173.1236      -88580.145     -88053.913      21283.661     -109337.57    
    164000   164000         0.26921965     0.30048377     320.51803      277.16362      43.354403      48.389092      297.27008      101.06636     -87749.676     -88056.88       21283.371     -109340.25    
    165000   165000         0.26935503     0.24096675     320.42241      266.35978      54.062623      48.364772      299.22993     -308.54047     -88995.808     -88057.958      21423.689     -109481.65    
    166000   166000         0.26924352     0.25715719     327.90648      277.24761      50.658878      48.384802      298.70336     -563.61363     -89769.801     -88056.622      21385.989     -109442.61    
    167000   167000         0.2691498      0.23857724     331.94982      277.34573      54.604095      48.401649      301.4892       222.5567      -87376.994     -88053.485      21585.444     -109638.93    
    168000   168000         0.26910134     0.24245558     328.81476      275.08411      53.730645      48.410367      300.45764     -404.5466      -89287.58      -88057.906      21511.588     -109569.49    
    169000   169000         0.26898697     0.30940353     321.51121      279.40667      42.104544      48.430949      299.53058     -55.922865     -88223.416     -88053.431      21445.214     -109498.65    
    170000   170000         0.2691649      0.28849259     318.89584      273.73941      45.156426      48.398935      298.75955     -363.81108     -89164.067     -88058.215      21390.011     -109448.23    
    171000   171000         0.26940621     0.23272698     329.63252      273.6558       55.976726      48.355583      298.01363     -423.02261     -89342.556     -88056.722      21336.606     -109393.33    
    172000   172000         0.26954577     0.23826125     321.47362      266.7971       54.676513      48.330546      295.83825     -229.44427     -88747.784     -88050.357      21180.858     -109231.21    
    173000   173000         0.26951634     0.24539766     326.79966      273.71319      53.086466      48.335824      299.27735      160.26172     -87568.663     -88055.8        21427.084     -109482.88    
    174000   174000         0.26961925     0.22054375     343.28879      284.21981      59.068982      48.317376      299.85383      413.29564     -86798.419     -88054.686      21468.358     -109523.04    
    175000   175000         0.26972715     0.24799994     327.02297      274.49355      52.529425      48.298047      301.80508      245.33715     -87314.309     -88060.044      21608.06      -109668.1     
    176000   176000         0.2697045      0.23999809     331.67355      277.39272      54.280826      48.302103      299.9142      -644.76517     -90020.814     -88060.964      21472.68      -109533.64    
    177000   177000         0.2696999      0.28558589     329.11744      283.50141      45.61603       48.302926      299.69128     -267.8799      -88866.504     -88052.247      21456.72      -109508.97    
    178000   178000         0.26958538     0.24915062     319.82443      267.53761      52.286825      48.323445      297.75137     -124.8329      -88432.5       -88053.053      21317.83      -109370.88    
    179000   179000         0.26951462     0.25815605     327.4506       276.98773      50.462868      48.336134      299.25454     -183.31793     -88614.347     -88057.128      21425.451     -109482.58    
    180000   180000         0.26949922     0.26913043     323.44843      275.0433       48.405134      48.338894      299.39826     -218.91175     -88724.001     -88058.59       21435.741     -109494.33    
    181000   181000         0.26939353     0.15623368     347.17261      263.78921      83.383394      48.35786       299.7821       173.259       -87533.406     -88060.05       21463.222     -109523.27    
    182000   182000         0.26919273     0.22733951     330.69675      273.39349      57.303257      48.393931      299.08234      756.5392      -85758.81      -88058.412      21413.122     -109471.53    
    183000   183000         0.26922729     0.49406697     311.77087      285.4034       26.367467      48.387719      298.63726      494.25188     -86554.946     -88057.291      21381.256     -109438.55    
    184000   184000         0.26919561     0.34880039     317.72448      280.37563      37.348853      48.393413      300.04923     -14.356622     -88100.427     -88056.788      21482.348     -109539.14    
    185000   185000         0.26901913     0.19775592     334.61471      268.73909      65.875624      48.42516       299.89562     -119.1881      -88418.443     -88056.155      21471.35      -109527.5     
    186000   186000         0.26867859     0.21919311     331.70119      272.26823      59.432957      48.486537      297.29898      123.91933     -87677.065     -88053.735      21285.441     -109339.18    
    187000   187000         0.26849546     0.23936531     327.33774      272.91342      54.424321      48.519608      299.13181      690.42026     -85958.655     -88057.28       21416.664     -109473.94    
    188000   188000         0.2685424      0.24943819     328.39006      276.16351      52.226543      48.511126      298.65029     -459.99788     -89453.623     -88055.398      21382.189     -109437.59    
    189000   189000         0.26833349     0.32195337     326.03528      285.57198      40.463296      48.548895      298.65297      173.35378     -87530.457     -88057.389      21382.381     -109439.77    
    190000   190000         0.26819632     0.2244877      333.41891      275.38769      58.031217      48.573725      300.20053      560.56049     -86353.873     -88057.772      21493.18      -109550.95    
    191000   191000         0.26791633     0.2235138      323.98526      265.70119      58.284072      48.624488      297.64946     -116.42337     -88408.201     -88054.317      21310.533     -109364.85    
    192000   192000         0.2677729      0.24910669     331.65245      279.35641      52.296045      48.650534      299.72149     -61.04762      -88245.567     -88060.004      21458.883     -109518.89    
    193000   193000         0.26761883     0.18384922     342.21008      271.3515       70.858578      48.678542      299.63547      59.337385     -87882.51      -88062.874      21452.724     -109515.6     
    194000   194000         0.26760728     0.22802578     328.251        271.1202       57.130797      48.680643      296.45014      647.83409     -86080.885     -88050.063      21224.667     -109274.73    
    195000   195000         0.2672715      0.23210996     320.89081      264.76528      56.12553       48.741802      299.26704      400.53303     -86836.967     -88054.441      21426.346     -109480.79    
    196000   196000         0.2669273      0.24244048     322.03694      268.30295      53.73399       48.804654      297.78228     -35.740387     -88162.282     -88053.644      21320.043     -109373.69    
    197000   197000         0.26651195     0.1833289      337.93043      266.87074      71.059687      48.880715      298.37998     -645.34507     -90014.944     -88053.331      21362.836     -109416.17    
    198000   198000         0.26616743     0.2023186      332.56499      268.17499      64.389998      48.943984      299.77573      123.30008     -87680.475     -88055.262      21462.766     -109518.03    
    199000   199000         0.26582797     0.19780675     339.31437      273.45567      65.858697      49.006485      299.92725     -217.00996     -88714.126     -88054.496      21473.614     -109528.11    
    200000   200000         0.26566352     0.21357108     329.536        268.53854      60.997466      49.036821      301.11506      235.09776     -87343.391     -88058.002      21558.657     -109616.66    
    201000   201000         0.26553807     0.3046048      322.68614      279.91828      42.767857      49.059987      299.80563     -989.4147      -91067.864     -88060.405      21464.907     -109525.31    
    202000   202000         0.26516724     0.29544105     327.78499      283.69059      44.094395      49.128597      298.29169      351.11189     -86983.291     -88050.543      21356.515     -109407.06    
    203000   203000         0.26496997     0.25472215     322.70297      271.55982      51.143155      49.165173      300.09203     -516.47423     -89628.101     -88058.208      21485.412     -109543.62    
    204000   204000         0.26479335     0.25982821     333.97879      283.84069      50.138107      49.197967      298.28492      521.5835      -86464.576     -88049.999      21356.03      -109406.03    
    205000   205000         0.26463193     0.29282921     322.88606      278.39837      44.487689      49.227976      299.37867      149.14408     -87601.894     -88055.237      21434.338     -109489.58    
    206000   206000         0.26446245     0.28994537     327.00542      282.07525      44.930169      49.259525      298.63009      573.56621     -86313.982     -88057.413      21380.743     -109438.16    
    207000   207000         0.26422213     0.24042506     327.45099      273.26656      54.184429      49.304328      299.21538     -531.84529     -89672.692     -88056.077      21422.647     -109478.72    
    208000   208000         0.26394946     0.20796616     341.18356      278.54214      62.641416      49.355261      298.63307     -173.83017     -88577.687     -88049.307      21380.956     -109430.26    
    209000   209000         0.26372625     0.18153208     344.87572      273.11267      71.763043      49.397033      299.47224     -602.10061     -89889.101     -88058.936      21441.037     -109499.97    
    210000   210000         0.2634062      0.21050476     326.37187      264.48589      61.885985      49.457054      299.54121     -280.16153     -88908.165     -88056.576      21445.976     -109502.55    
    211000   211000         0.26307172     0.21256545     326.81876      265.53272      61.286041      49.519936      298.94939     -94.428654     -88342.923     -88055.894      21403.603     -109459.5     
    212000   212000         0.26276326     0.19435596     335.5491       268.52108      67.028018      49.578068      300.18573      75.699481     -87830.969     -88061.068      21492.12      -109553.19    
    213000   213000         0.26261761     0.2637214      331.86399      282.46605      49.397943      49.605564      299.61909      340.25421     -87019.758     -88054.006      21451.551     -109505.56    
    214000   214000         0.26255182     0.26677288     323.7476       274.9147       48.832905      49.617994      300.49989     -695.5274      -90169.684     -88055.536      21514.613     -109570.15    
    215000   215000         0.26243638     0.28666329     322.90949      277.46491      45.444585      49.63982       299.2364       263.08807     -87253.723     -88053.414      21424.152     -109477.57    
    216000   216000         0.26215414     0.19709576     342.3974       276.30113      66.096269      49.693262      299.87218     -321.84424     -89033.471     -88055.182      21469.672     -109524.85    
    217000   217000         0.26171445     0.18544117     334.57974      264.32946      70.250283      49.776749      298.78787      16.219854     -88005.7       -88055.002      21392.039     -109447.04    
    218000   218000         0.26126024     0.21907627     336.03648      276.57183      59.464653      49.863287      299.40659      670.41635     -86017         -88054.82       21436.337     -109491.16    
    219000   219000         0.2608979      0.29641238     325.38014      281.43024      43.9499        49.932539      299.08919     -21.518796     -88124.197     -88058.787      21413.613     -109472.4     
    220000   220000         0.26089698     0.36946556     317.92837      282.66853      35.259834      49.932715      299.11738      218.83118     -87392.151     -88057.318      21415.631     -109472.95    
    221000   221000         0.26088477     0.21649515     330.96885      270.79524      60.173609      49.935052      298.95093      73.084225     -87837.126     -88059.275      21403.713     -109462.99    
    222000   222000         0.26087657     0.23902073     332.10039      277.59761      54.502781      49.936621      298.95126      747.1283      -85783.264     -88054.261      21403.738     -109458       
    223000   223000         0.26089563     0.30967553     316.01119      273.94363      42.067562      49.932973      298.26848      290.46297     -87169.242     -88052.144      21354.853     -109407       
    224000   224000         0.26089797     0.2025954      333.95689      269.65486      64.302026      49.932524      298.26382     -466.37946     -89472.21      -88054.587      21354.52      -109409.11    
    225000   225000         0.26095187     0.25036298     326.8795       274.84588      52.033629      49.922211      297.84506      203.7799      -87429.673     -88049.09       21324.538     -109373.63    
    226000   226000         0.26087697     0.23685483     324.76648      269.7653       55.001177      49.936546      297.64069      267.34539     -87243.733     -88056.365      21309.906     -109366.27    
    227000   227000         0.26089049     0.24317864     327.44784      273.87695      53.570884      49.933956      299.80861     -783.82167     -90438.701     -88056.17       21465.12      -109521.29    
    228000   228000         0.26092772     0.30728444     317.67207      275.27716      42.394904      49.926832      297.95679     -465.61514     -89473.455     -88058.156      21332.537     -109390.69    
    229000   229000         0.26103676     0.37767763     320.93011      286.43695      34.493159      49.905976      298.6574       229.92202     -87352.686     -88051.564      21382.698     -109434.26    
    230000   230000         0.26116145     0.26746351     333.4742       284.76739      48.70681       49.88215       300.01502      380.0812      -86899.054     -88054.362      21479.898     -109534.26    
    231000   231000         0.26125155     0.2211397      334.01104      275.10125      58.909796      49.864946      300.03852      220.00521     -87388.396     -88057.131      21481.581     -109538.71    
    232000   232000         0.26114655     0.23605666     334.77002      279.58287      55.187151      49.884995      299.91498     -516.14499     -89624.611     -88055.72       21472.736     -109528.46    
    233000   233000         0.26117529     0.42719456     315.15758      284.66259      30.494991      49.879506      298.21324     -544.82269     -89706.475     -88050.414      21350.898     -109401.31    
    234000   234000         0.26131024     0.25651203     327.7974       277.01111      50.786291      49.853746      298.97496      657.10042     -86065.243     -88062.587      21405.434     -109468.02    
    235000   235000         0.26141806     0.23160788     327.83797      271.59077      56.247199      49.833184      298.08344      17.231141     -87997.88      -88050.257      21341.605     -109391.86    
    236000   236000         0.26146048     0.36698916     326.95285      291.45509      35.497764      49.825099      302.10473     -63.68307      -88253.182     -88059.608      21629.513     -109689.12    
    237000   237000         0.26147532     0.30294632     326.6326       283.63061      43.00199       49.822272      300.03259      84.350281     -87801.453     -88057.847      21481.157     -109539       
    238000   238000         0.26150743     0.22270525     332.96729      274.47161      58.495678      49.816153      299.17665     -290.04323     -88938.125     -88056.5        21419.875     -109476.37    
    239000   239000         0.26140599     0.23425179     330.05687      274.44451      55.612358      49.835486      298.45948     -513.70315     -89619.214     -88057.744      21368.528     -109426.27    
    240000   240000         0.26130197     0.30119714     324.75371      281.50199      43.251721      49.855324      299.64374      732.69299     -85823.115     -88050.234      21453.316     -109503.55    
    241000   241000         0.26131645     0.24307772     328.04831      274.45518      53.593125      49.852562      298.19499     -705.30025     -90202.721     -88058.866      21349.591     -109408.46    
    242000   242000         0.26132952     0.29989018     314.60104      271.16083      43.440216      49.850068      298.95649     -293.59045     -88947.911     -88055.504      21404.112     -109459.62    
    243000   243000         0.26149353     0.24607313     325.54374      272.603        52.940744      49.818802      299.20917     -531.04152     -89673.842     -88059.671      21422.203     -109481.87    
    244000   244000         0.26159543     0.28905736     333.82759      288.75939      45.068198      49.799397      297.5029       270.40133     -87229.651     -88051.572      21300.04      -109351.61    
    245000   245000         0.26168988     0.25513621     328.32063      277.26048      51.060155      49.781423      298.33394      90.745658     -87779.11      -88054.944      21359.54      -109414.48    
    246000   246000         0.26176625     0.29633592     326.24875      282.28751      43.961239      49.7669        299.3311       821.0926      -85559.967     -88055.788      21430.932     -109486.72    
    247000   247000         0.26191134     0.31314002     321.57448      279.97234      41.602139      49.739329      300.34563     -593.4737      -89862.985     -88059.043      21503.569     -109562.61    
    248000   248000         0.26205587     0.35956056     320.0104       283.77924      36.231155      49.711897      298.52985     -273.96753     -88889.212     -88056.451      21373.566     -109430.02    
    249000   249000         0.2621634      0.28477883     320.54365      274.79834      45.745305      49.691508      297.49011     -536.31168     -89684.386     -88054.195      21299.125     -109353.32    
    250000   250000         0.26223513     0.30578768     317.08193      274.47951      42.602418      49.677915      297.67372     -528.98519     -89658.3       -88050.378      21312.271     -109362.65    
    251000   251000         0.26223955     0.2252792      331.32021      273.49288      57.82733       49.677077      299.49665     -120.93317     -88420.633     -88053.04       21442.785     -109495.83    
    252000   252000         0.26243404     0.35234519     315.86414      278.89104      36.973102      49.640263      299.16745      184.98587     -87493.4       -88055.689      21419.216     -109474.9     
    253000   253000         0.26253875     0.36299481     316.25148      280.36311      35.888376      49.620464      300.99938      296.93685     -87162.476     -88065.056      21550.375     -109615.43    
    254000   254000         0.26266789     0.33825642     321.38524      282.87216      38.513074      49.596068      298.85957      74.27339      -87830.395     -88056.159      21397.173     -109453.33    
    255000   255000         0.26274333     0.35948519     315.01696      278.77821      36.238752      49.581827      297.60724     -29.984413     -88146.552     -88055.41       21307.511     -109362.92    
    256000   256000         0.26278745     0.29268419     325.06459      280.55486      44.509731      49.573502      299.64124     -820.32566     -90550.713     -88057.223      21453.137     -109510.36    
    257000   257000         0.26289206     0.24872021     322.72656      270.34925      52.377305      49.553778      299.58233     -181.30253     -88610.388     -88059.294      21448.919     -109508.21    
    258000   258000         0.26284153     0.21506083     331.76313      271.18821      60.574929      49.563303      299.8343       924.27009     -85242.136     -88051.579      21466.96      -109518.54    
    259000   259000         0.26297203     0.34495691     317.85551      280.09052      37.76499       49.538707      300.89272     -357.1         -89141.096     -88055.643      21542.738     -109598.38    
    260000   260000         0.26296064     0.27132064     327.29018      279.27579      48.014388      49.540854      299.31532     -263.49215     -88857.831     -88056.912      21429.803     -109486.71    
    261000   261000         0.26293156     0.31707052     329.31832      288.23189      41.086427      49.546333      300.18343      364.09359     -86948.73      -88055.441      21491.956     -109547.4     
    262000   262000         0.26285606     0.26892462     321.74005      273.29787      48.442178      49.560564      299.81668     -713.39889     -90224.847     -88056.376      21465.698     -109522.07    
    263000   263000         0.26274357     0.27217737     322.07705      274.21379      47.863254      49.581783      298.15862     -852.05612     -90646.053     -88056.114      21346.988     -109403.1     
    264000   264000         0.26278826     0.60626645     313.91517      292.42743      21.487738      49.573351      297.22209      480.24829     -86596.241     -88056.02       21279.936     -109335.96    
    265000   265000         0.26280288     0.24507915     334.29584      281.14038      53.155458      49.570593      300.25323     -275.15086     -88895.092     -88058.734      21496.953     -109555.69    
    266000   266000         0.26275531     0.22436404     338.75687      280.69366      58.063202      49.579568      299.52927      889.92812     -85348.189     -88053.245      21445.121     -109498.37    
    267000   267000         0.26271971     0.20953245     333.62425      271.45109      62.173159      49.586286      300.1012      -627.43077     -89961.752     -88054.592      21486.069     -109540.66    
    268000   268000         0.26265486     0.19923322     343.36277      277.97561      65.387161      49.598529      300.00506      257.78879     -87270.809     -88054.392      21479.186     -109533.58    
    269000   269000         0.2625847      0.19906375     332.93037      267.48754      65.442828      49.611781      298.10172     -41.140292     -88173.332     -88048.281      21342.914     -109391.19    
    270000   270000         0.26240263     0.18855761     341.8472       272.758        69.089199      49.646203      298.64444      435.66825     -86731.635     -88055.907      21381.771     -109437.68    
    271000   271000         0.26228274     0.22756313     329.20682      271.95987      57.246948      49.668898      297.43135     -468.27377     -89476.167     -88052.787      21294.918     -109347.7     
    272000   272000         0.26221405     0.25823089     328.1683       277.72006      50.448242      49.681909      300.02761      440.8277      -86712.461     -88052.415      21480.8       -109533.22    
    273000   273000         0.26221509     0.2273539      337.0553       279.75567      57.299631      49.681711      299.61938     -957.31581     -90967.318     -88057.429      21451.572     -109509       
    274000   274000         0.26224186     0.25388566     328.17903      276.86737      51.311659      49.67664       299.58486     -229.50188     -88758.41      -88060.808      21449.1       -109509.91    
    275000   275000         0.26234798     0.45686871     315.01156      286.49725      28.514307      49.656546      299.33323      20.569103     -87988.797     -88051.32       21431.085     -109482.4     
    276000   276000         0.26244211     0.34955391     317.50719      280.23885      37.268341      49.638736      298.77726      126.5943      -87669.154     -88053.954      21391.28      -109445.23    
    277000   277000         0.26247999     0.23138675     339.03908      282.73813      56.300953      49.631573      301.56456     -603.27193     -89889.954     -88056.228      21590.839     -109647.07    
    278000   278000         0.26240653     0.32245946     318.91033      278.51054      40.39979       49.645466      297.72573     -504.72229     -89586.868     -88052.697      21315.994     -109368.69    
    279000   279000         0.26238107     0.28915436     328.4158       283.36272      45.05308       49.650283      300.16116     -446.48712     -89415.007     -88057.85       21490.361     -109548.21    
    280000   280000         0.26231691     0.26196688     325.52559      275.79681      49.728785      49.662427      299.64025     -99.343079     -88356.068     -88054.101      21453.066     -109507.17    
    281000   281000         0.26237201     0.32944126     319.35613      279.81253      39.543604      49.651997      301.22539     -53.918761     -88223.224     -88059.33       21566.556     -109625.89    
    282000   282000         0.26239838     0.2918438      332.20737      287.56947      44.6379        49.647009      299.25025     -345.52505     -89103.604     -88053.334      21425.143     -109478.48    
    283000   283000         0.26242429     0.25989655     327.79468      277.66976      50.124923      49.642106      298.97896     -156.83047     -88531.159     -88054.452      21405.72      -109460.17    
    284000   284000         0.26231337     0.2579176      328.78609      278.27657      50.509522      49.663097      298.24067      104.21926     -87734.345     -88051.133      21352.862     -109403.99    
    285000   285000         0.26232622     0.21478109     333.93049      273.27667      60.653824      49.660665      300.94049     -308.91051     -89003.704     -88064.73       21546.159     -109610.89    
    286000   286000         0.26224911     0.21218936     335.96398      274.56931      61.394665      49.675266      299.97837     -756.88391     -90358.013     -88057.363      21477.275     -109534.64    
    287000   287000         0.26230403     0.25507168     317.3097       266.23663      51.073073      49.664865      296.76        -335.60535     -89068.466     -88048.348      21246.852     -109295.2     
    288000   288000         0.26229586     0.28205467     318.00251      271.81538      46.187126      49.666414      298.68374     -465.16956     -89469.996     -88056.05       21384.584     -109440.63    
    289000   289000         0.26228164     0.25293361     325.67773      274.17293      51.504799      49.669106      300.07669     -105.64011     -88383.25      -88062.143      21484.313     -109546.46    
    290000   290000         0.26235758     0.23929232     337.06588      282.62496      54.440922      49.654728      300.33664      98.937611     -87760.417     -88061.152      21502.925     -109564.08    
    291000   291000         0.26243308     0.35675115     317.87307      281.35659      36.516475      49.640443      298.06622      554.65039     -86363.796     -88049.73       21340.372     -109390.1     
    292000   292000         0.26268869     0.27185353     326.87039      278.95012      47.92027       49.592141      298.45803     -864.39521     -90678.523     -88051.078      21368.424     -109419.5     
    293000   293000         0.26277918     0.31004138     325.98678      283.96886      42.017922      49.575064      299.48458      627.95506     -86147.116     -88055.87       21441.921     -109497.79    
    294000   294000         0.26280895     0.35171839     317.43996      280.40097      37.038992      49.569447      298.63532      573.03401     -86310.739     -88052.553      21381.118     -109433.67    
    295000   295000         0.26280654     0.27504887     325.04828      277.68472      47.363563      49.569902      299.57624      645.7935      -86090.795     -88053.771      21448.483     -109502.25    
    296000   296000         0.26282524     0.3543059      322.7355       285.96701      36.768494      49.566375      297.96627     -692.63459     -90159.827     -88054.472      21333.216     -109387.69    
    297000   297000         0.26276845     0.39167338     308.8439       275.58329      33.260607      49.577087      298.08082      310.87005     -87108.898     -88053.829      21341.417     -109395.25    
    298000   298000         0.26280606     0.37463199     316.19799      281.42442      34.773577      49.569992      301.20438     -307.55869     -88991.756     -88056.891      21565.052     -109621.94    
    299000   299000         0.26287299     0.31139451     321.98538      280.15004      41.835337      49.557372      299.69277     -53.523822     -88220.02      -88057.327      21456.827     -109514.15    
    300000   300000         0.26285199     0.23484395     328.11713      272.645        55.472131      49.561331      298.50269     -320.16034     -89028.138     -88054.968      21371.621     -109426.59    
    301000   301000         0.26282129     0.3086672      322.65336      280.44837      42.204985      49.56712       297.61894     -367.06555     -89167.15      -88051.405      21308.348     -109359.75    
    302000   302000         0.26269021     0.32242265     317.78415      277.37975      40.404402      49.591853      299.70641     -54.933935     -88218.041     -88051.062      21457.803     -109508.86    
    303000   303000         0.2626812      0.20566018     336.8082       273.46442      63.343788      49.593555      299.10611     -399.94424     -89266.354     -88050.67       21414.824     -109465.49    
    304000   304000         0.26263442     0.29082792     321.92958      277.13576      44.793823      49.602387      299.16686      401.28868     -86835.701     -88055.471      21419.173     -109474.64    
    305000   305000         0.26261136     0.36664473     318.5111       282.97999      35.531111      49.606743      299.40596     -193.16047     -88644.031     -88056.894      21436.292     -109493.19    
    306000   306000         0.26267941     0.26564762     318.48165      269.44189      49.039756      49.593894      299.75246      111.67219     -87715.613     -88055.056      21461.1       -109516.16    
    307000   307000         0.262695       0.31135209     318.96896      277.12793      41.841038      49.59095       300.30316      421.0364      -86775.67      -88055.466      21500.528     -109555.99    
    308000   308000         0.26273684     0.30526127     324.79153      282.11564      42.675884      49.583052      298.57732      258.08544     -87270.626     -88055.112      21376.965     -109432.08    
    309000   309000         0.26265768     0.28167688     336.78358      290.53451      46.249072      49.597995      301.48728     -430.13714     -89363.061     -88055.602      21585.306     -109640.91    
    310000   310000         0.26262656     0.42254005     313.04968      282.21877      30.830911      49.603873      299.16361      58.752954     -87875.966     -88054.553      21418.941     -109473.49    
    311000   311000         0.26254078     0.22511288     323.587        265.71694      57.870055      49.620081      300.76902      142.35925     -87622.355     -88055.075      21533.881     -109588.96    
    312000   312000         0.26254257     0.28546694     323.23108      277.59604      45.635038      49.619742      299.00018     -6.4088813     -88074.913     -88055.433      21407.24      -109462.67    
    313000   313000         0.26252676     0.26095175     321.15753      271.2353       49.922235      49.62273       297.00603      412.04743     -86794.691     -88047.165      21264.466     -109311.63    
    314000   314000         0.26233513     0.2136816      334.25993      273.29401      60.965916      49.658978      299.08956      13.213063     -88017.366     -88057.529      21413.639     -109471.17    
    315000   315000         0.26221552     0.23501965     330.34767      274.91701      55.430662      49.68163       299.24995      737.39938     -85814.949     -88056.373      21425.122     -109481.49    
    316000   316000         0.26220347     0.20962019     332.02215      269.87501      62.147137      49.683914      297.5689      -726.11286     -90259.932     -88052.815      21304.766     -109357.58    
    317000   317000         0.26216685     0.32703282     327.65281      287.81799      39.834823      49.690853      299.42479      89.832478     -87784.876     -88057.934      21437.64      -109495.57    
    318000   318000         0.26218771     0.23382692     321.74208      266.02867      55.713408      49.686899      300.88358      102.52451     -87747.503     -88059.14       21542.084     -109601.22    
    319000   319000         0.26221442     0.24603854     331.34434      278.39616      52.948186      49.681838      300.51354     -333.66524     -89066.522     -88052.302      21515.59      -109567.89    
    320000   320000         0.26222633     0.4024202      315.69783      283.32547      32.372368      49.679581      300.14134      308.87457     -87122.804     -88061.669      21488.942     -109550.61    
    321000   321000         0.26230946     0.28244992     324.00186      277.87937      46.122493      49.663839      298.42727     -536.31915     -89682.492     -88052.278      21366.222     -109418.5     
    322000   322000         0.2622732      0.29311303     322.76902      278.32441      44.44461       49.670705      300.76182     -659.18704     -90060.784     -88057.097      21533.366     -109590.46    
    323000   323000         0.26213401     0.22630019     332.77991      275.21348      57.566432      49.697079      298.62104     -347.10488     -89111.535     -88056.463      21380.095     -109436.56    
    324000   324000         0.26211054     0.29431997     315.12876      270.86641      44.262353      49.701528      298.21211     -130.2266      -88451.464     -88055.623      21350.817     -109406.44    
    325000   325000         0.26213016     0.37919475     321.53302      287.17786      34.355155      49.697808      298.62178     -345.48614     -89108.439     -88058.288      21380.148     -109438.44    
    326000   326000         0.26212037     0.26070931     326.46328      276.49462      49.968659      49.699665      299.73495     -70.032047     -88268.213     -88055.341      21459.847     -109515.19    
    327000   327000         0.26217547     0.24322745     332.1508       278.59066      53.560134      49.689219      298.75721     -96.113772     -88345.931     -88053.781      21389.844     -109443.63    
    328000   328000         0.26231148     0.43055332     325.54788      295.29078      30.257099      49.663456      300.41459      110.11205     -87724.901     -88059.602      21508.506     -109568.11    
    329000   329000         0.26242455     0.35820841     325.94741      289.57949      36.367919      49.642057      299.484        116.7119      -87701.975     -88056.736      21441.88      -109498.62    
    330000   330000         0.26247317     0.25702389     326.43063      275.74548      50.68515       49.632861      299.45781     -510.45291     -89607.382     -88055.792      21440.004     -109495.8     
    331000   331000         0.26261286     0.33304328     330.74219      291.62627      39.115921      49.60646       301.12764     -217.17674     -88718.167     -88058.03       21559.558     -109617.59    
    332000   332000         0.2627611      0.44991326     323.46305      294.50793      28.955125      49.578475      299.25612     -29.73647      -88145.008     -88054.62       21425.564     -109480.18    
    333000   333000         0.26300913     0.31902114     316.21394      275.37874      40.835208      49.53172       298.01934      65.567963     -87852.437     -88051.74       21337.015     -109388.75    
    334000   334000         0.26308753     0.19079654     334.83178      266.55332      68.278463      49.51696       299.1283       490.90564     -86561.303     -88053.476      21416.412     -109469.89    
    335000   335000         0.26312765     0.33967879     326.20288      287.85108      38.351804      49.509409      297.91894     -714.88997     -90228.9       -88055.896      21329.827     -109385.72    
    336000   336000         0.26319998     0.25823627     320.63356      270.18637      50.447191      49.495804      298.931       -168.70919     -88571.554     -88058.74       21402.287     -109461.03    
    337000   337000         0.26326534     0.19542633     337.89017      271.22927      66.660899      49.483515      299.49487     -739.00843     -90298.908     -88052.593      21442.658     -109495.25    
[...]
    931000   931000         0.26440907     0.31104948     326.37187      284.49013      41.881743      49.269469      298.42419      56.739406     -87881.026     -88053.493      21366.001     -109419.49    
    932000   932000         0.26442173     0.26477928     322.96995      273.76937      49.200582      49.26711       298.63413      818.02717     -85568.663     -88055.166      21381.032     -109436.2     
    933000   933000         0.26440776     0.2593551      330.43501      280.20545      50.229568      49.269713      299.08241     -350.68516     -89123.279     -88057.325      21413.127     -109470.45    
    934000   934000         0.26440178     0.21440418     339.3779       278.61744      60.760451      49.270828      298.12174     -111.31981     -88403.741     -88065.369      21344.347     -109409.72    
    935000   935000         0.26441223     0.62719396     315.21224      294.44148      20.770759      49.26888       299.14042     -221.68631     -88731.626     -88057.781      21417.281     -109475.06    
    936000   936000         0.26446672     0.41570142     317.63126      286.29315      31.338105      49.258729      298.78513      237.15455     -87335.341     -88056.204      21391.843     -109448.05    
    937000   937000         0.26450797     0.26260313     322.74306      273.13476      49.608298      49.251048      297.81203     -706.18859     -90195.874     -88049.319      21322.173     -109371.49    
    938000   938000         0.26450702     0.24357544     319.62064      266.13702      53.483612      49.251224      299.56167     -478.83236     -89510.184     -88054.709      21447.44      -109502.15    
    939000   939000         0.2644583      0.29690014     318.7094       274.83171      43.877698      49.260296      297.87979      120.8643      -87687.175     -88054.559      21327.024     -109381.58    
    940000   940000         0.26445827     0.29397443     328.79592      284.48154      44.31438       49.260303      300.49574      42.421274     -87925.728     -88054.673      21514.316     -109568.99    
    941000   941000         0.26446607     0.31051882     317.6962       275.74288      41.953317      49.25885       298.84442     -164.43459     -88552.528     -88052.707      21396.088     -109448.8     
    942000   942000         0.26447797     0.26427629     321.83369      272.53947      49.294223      49.256633      299.33651      259.2835      -87269.445     -88057.572      21431.32      -109488.89    
    943000   943000         0.26450883     0.41566922     312.54304      281.20251      31.340532      49.250887      299.13823      996.37872     -85023.209     -88051.836      21417.123     -109468.96    
    944000   944000         0.26454333     0.26860219     323.00117      274.50084      48.500328      49.244465      300.79505     -482.39604     -89524.992     -88058.685      21535.745     -109594.43    
    945000   945000         0.26453429     0.24199682     323.66137      269.82887      53.832502      49.246147      300.07028     -103.32166     -88375.197     -88061.137      21483.855     -109544.99    
    946000   946000         0.26454042     0.29910661     329.31041      285.75639      43.554017      49.245006      301.00411      315.2916      -87101.435     -88059.806      21550.714     -109610.52    
    947000   947000         0.264558       0.23744309     327.25436      272.38945      54.864913      49.241734      299.71133      133.46228     -87653.309     -88058.985      21458.155     -109517.14    
    948000   948000         0.26458373     0.26659524     326.42151      277.55607      48.865443      49.236945      299.31782      148.78506     -87606.892     -88059.144      21429.981     -109489.13    
    949000   949000         0.26458966     0.2438397      325.14796      271.72231      53.42565       49.235842      298.44639      153.41028     -87586.181     -88052.492      21367.591     -109420.08    
    950000   950000         0.26461129     0.25293736     325.88885      274.38482      51.504035      49.231817      300.16225      598.39229     -86238.215     -88057.108      21490.439     -109547.55    
    951000   951000         0.26460704     0.27514104     317.29595      269.94826      47.347696      49.232608      300.40686     -376.66605     -89199.625     -88054.698      21507.952     -109562.65    
    952000   952000         0.26460521     0.22846508     327.85264      270.83169      57.020944      49.232947      298.61441     -761.25197     -90364.356     -88050.429      21379.62      -109430.05    
    953000   953000         0.26458741     0.2972047      331.27777      287.44504      43.832733      49.236261      300.62529     -208.5769      -88687.88      -88053.883      21523.591     -109577.47    
    954000   954000         0.2645874      0.37420531     318.35267      283.53944      34.813227      49.236262      299.8001      -580.07774     -89812.763     -88049.539      21464.511     -109514.05    
    955000   955000         0.26458274     0.2259841      337.74988      280.10292      57.646951      49.237129      299.91654      88.194623     -87783.189     -88051.268      21472.848     -109524.12    
    956000   956000         0.26458868     0.29702476     324.10662      280.24733      43.859288      49.236024      299.15         189.92179     -87477.04      -88054.333      21417.967     -109472.3     
    957000   957000         0.26459054     0.2015493      337.65692      273.02115      64.635773      49.235677      301.39822     -347.68056     -89117.169     -88060.348      21578.93      -109639.28    
    958000   958000         0.26455739     0.26292292     322.83468      273.28672      49.54796       49.241846      298.05141      353.59361     -86981.748     -88056.543      21339.312     -109395.85    
    959000   959000         0.26452902     0.24403117     336.22424      282.84051      53.383731      49.247129      297.5703      -361.46851     -89150.283     -88051.551      21304.866     -109356.42    
    960000   960000         0.26448898     0.25458247     326.60857      275.43735      51.171216      49.254583      298.98575      293.05939     -87162.243     -88053.036      21406.206     -109459.24    
    961000   961000         0.26447403     0.20976278     333.54669      271.4418       62.104891      49.257367      300.1886      -524.66617     -89652.883     -88058.09       21492.326     -109550.42    
    962000   962000         0.26446599     0.19852828     329.81771      264.19837      65.619337      49.258866      298.16283     -443.428       -89402.657     -88054.798      21347.289     -109402.09    
    963000   963000         0.26443462     0.24885359     334.59683      282.2476       52.349233      49.264708      299.18697      148.29117     -87601.111     -88051.862      21420.613     -109472.47    
    964000   964000         0.26441559     0.24103716     325.74556      271.69873      54.04683       49.268253      297.75621     -108.2983      -88381.763     -88052.576      21318.177     -109370.75    
    965000   965000         0.26438611     0.21617675     336.76093      276.49869      60.262236      49.273747      299.79537     -474.55181     -89498.112     -88055.648      21464.172     -109519.82    
    966000   966000         0.26435499     0.30389481     320.6166       277.74882      42.867776      49.279549      299.85733      198.91294     -87449.768     -88054.391      21468.608     -109523       
    967000   967000         0.26434578     0.29692831     323.56789      279.69436      43.873534      49.281265      299.95846     -695.49818     -90167.315     -88053.255      21475.849     -109529.1     
    968000   968000         0.26435038     0.27106875     317.32528      269.26627      48.059004      49.280409      297.68654      630.04851     -86139.091     -88054.207      21313.188     -109367.4     
    969000   969000         0.26433315     0.25447795     323.733        272.54077      51.192234      49.283619      298.25659     -13.5664       -88099.374     -88058.137      21354.002     -109412.14    
    970000   970000         0.26431987     0.24931121     325.90698      273.65383      52.253143      49.286096      301.3508       684.82318     -85980.4       -88062.012      21575.535     -109637.55    
    971000   971000         0.26429788     0.23056247     332.42401      275.92177      56.502232      49.290196      298.94252     -538.80624     -89692.718     -88054.944      21403.111     -109458.06    
    972000   972000         0.26423088     0.19426985     333.26677      266.20904      67.057726      49.302696      300.25705     -131.45845     -88453.467     -88053.881      21497.227     -109551.11    
    973000   973000         0.26418061     0.19083817     331.34335      263.07978      68.26357       49.312077      299.90534     -670.19456     -90093.007     -88055.861      21472.046     -109527.91    
    974000   974000         0.26412106     0.19883746     325.60198      260.08468      65.517305      49.323195      298.26894     -745.03351     -90315.886     -88051.257      21354.886     -109406.14    
    975000   975000         0.26403693     0.19759252     338.48625      272.55616      65.930098      49.33891       301.53783      199.33698     -87450.089     -88056          21588.925     -109644.93    
    976000   976000         0.26398889     0.29445531     326.96177      282.71976      44.242009      49.347889      298.36049      49.315699     -87902.425     -88052.327      21361.441     -109413.77    
    977000   977000         0.26393442     0.21816109     345.01029      285.29619      59.714105      49.358073      299.0563       433.73888     -86738.465     -88056.872      21411.258     -109468.13    
    978000   978000         0.26389121     0.26482105     325.92197      276.72915      49.192822      49.366155      301.10881     -291.46714     -88944.225     -88058.271      21558.21      -109616.48    
    979000   979000         0.26390358     0.28839288     325.00937      279.83733      45.17204       49.363842      298.91924     -1024.6195     -91168.223     -88053.755      21401.445     -109455.2     
    980000   980000         0.26391572     0.34944294     317.81489      280.53471      37.280176      49.361571      298.94897     -628.43369     -89967.848     -88057.64       21403.573     -109461.21    
    981000   981000         0.26393932     0.25550308     326.29319      275.30635      50.986839      49.357157      299.31577      293.58962     -87164.728     -88057.133      21429.835     -109486.97    
    982000   982000         0.26393274     0.22651385     329.48771      271.97558      57.512131      49.358387      297.20768     -931.41498     -90884.815     -88053.654      21278.904     -109332.56    
    983000   983000         0.26392729     0.26979358     322.77054      274.48438      48.286154      49.359406      298.61858      378.24455     -86903.007     -88052.732      21379.919     -109432.65    
    984000   984000         0.26393025     0.24352105     329.38392      275.88836      53.495558      49.358852      301.70808     -75.46862      -88287.264     -88057.867      21601.114     -109658.98    
    985000   985000         0.26394759     0.27861495     326.74818      279.99084      46.757342      49.355612      297.66391     -343.15139     -89094.445     -88051.391      21311.568     -109362.96    
    986000   986000         0.26395027     0.24382683     339.06113      285.63266      53.428471      49.355109      300.40732     -550.00753     -89728.93      -88057.108      21507.985     -109565.09    
    987000   987000         0.26399655     0.31935162     334.12302      293.33007      40.79295       49.346457      300.6092       253.72315     -87288.611     -88059.836      21522.439     -109582.28    
    988000   988000         0.26403632     0.33330436     322.0419       282.95662      39.085281      49.339025      298.4978      -425.5515      -89343.01      -88049.49       21371.271     -109420.76    
    989000   989000         0.26404569     0.27226757     329.48478      281.63739      47.847396      49.337273      297.61229      334.27051     -87035.308     -88051.368      21307.872     -109359.24    
    990000   990000         0.26403489     0.2429494      327.09766      273.47623      53.621432      49.339292      299.9644      -38.048747     -88168.484     -88052.83       21476.274     -109529.1     
    991000   991000         0.26401922     0.22159395     340.14311      281.35408      58.789036      49.342221      299.22187      13.968576     -88012.738     -88055.197      21423.112     -109478.31    
    992000   992000         0.26400561     0.27456526     337.27874      289.83175      47.446987      49.344763      301.66556     -301.14323     -88974.757     -88059.391      21598.071     -109657.46    
    993000   993000         0.26402344     0.21314262     329.24166      268.12158      61.120083      49.341431      298.34062     -156.36461     -88528.853     -88053.562      21360.018     -109413.58    
    994000   994000         0.2639967      0.19757238     329.65324      263.71642      65.936819      49.34643       296.5315       439.29878     -86713.951     -88049.259      21230.492     -109279.75    
    995000   995000         0.26395963     0.17275338     338.12479      262.71501      75.409781      49.353359      300.62636     -61.848379     -88248.64      -88060.644      21523.668     -109584.31    
    996000   996000         0.26393069     0.31225609     324.78944      283.06954      41.719905      49.358771      300.29496     -11.537344     -88095.4       -88060.331      21499.941     -109560.27    
    997000   997000         0.26392405     0.20834587     335.32296      272.7957       62.527252      49.360012      299.79004      415.16628     -86794.219     -88056.173      21463.791     -109519.96    
    998000   998000         0.26390691     0.34807915     319.91098      282.48474      37.426242      49.363218      300.26553     -415.68518     -89324.604     -88061.074      21497.834     -109558.91    
    999000   999000         0.2638948      0.19150266     333.75052      265.72382      68.026704      49.365483      300.52338     -695.06548     -90170.948     -88058.203      21516.295     -109574.5     
   1000000   1000000        0.26389222     0.40751488     314.06668      282.09903      31.967654      49.365967      299.54725      287.24558     -87181.546     -88054.668      21446.408     -109501.08    
   1001000   1001000        0.26391074     0.35634666     322.63602      286.07809      36.557925      49.362502      300.77475     -283.35337     -88920.974     -88059.683      21534.292     -109593.97    
   1002000   1002000        0.26393831     0.29910135     323.67528      280.1205       43.554783      49.357346      298.25939     -658.58339     -90058.386     -88056.533      21354.202     -109410.74    
   1003000   1003000        0.26392512     0.22463508     328.72055      270.72741      57.993144      49.359813      299.75361      167.82404     -87543.241     -88053.364      21461.183     -109514.55    
   1004000   1004000        0.26392765     0.25131791     328.02284      276.18693      51.835918      49.359339      301.01243      985.58691     -85063.891     -88059.714      21551.309     -109611.02    
   1005000   1005000        0.26391345     0.37988824     316.61889      282.32645      34.29244       49.361996      298.50945     -665.29061     -90077.931     -88055.692      21372.106     -109427.8     
   1006000   1006000        0.26391669     0.31984321     322.76543      282.03518      40.730251      49.361389      301.42651     -126.14961     -88444.777     -88061.328      21580.955     -109642.28    
   1007000   1007000        0.26393804     0.40616339     313.95138      281.87736      32.074024      49.357396      299.41237     -321.03767     -89035.523     -88059.686      21436.751     -109496.44    
   1008000   1008000        0.26395994     0.20580561     328.77396      265.47494      63.299024      49.353301      298.7483      -228.40386     -88745.846     -88051.582      21389.206     -109440.79    
   1009000   1009000        0.26398272     0.28155887     324.23441      277.96595      46.268457      49.349042      302.47222      651.99279     -86080.481     -88062.3        21655.824     -109718.12    
   1010000   1010000        0.26399603     0.27175392     328.8706       280.93276      47.937834      49.346554      299.72075      577.33738     -86303.703     -88058.598      21458.83      -109517.43    
   1011000   1011000        0.26402817     0.27099159     320.91232      272.83963      48.072689      49.340547      299.64186      303.90831     -87133.065     -88056.835      21453.182     -109510.02    
   1012000   1012000        0.26404774     0.30143153     318.72562      275.50754      43.218088      49.33689       297.78081      765.4998      -85724.591     -88051.43       21319.938     -109371.37    
   1013000   1013000        0.26404578     0.28828292     320.30715      275.11788      45.189269      49.337257      298.4916       315.91196     -87091.067     -88051.323      21370.828     -109422.15    
   1014000   1014000        0.26406182     0.43512053     319.31857      289.37907      29.939508      49.33426       299.63611     -549.54494     -89721.501     -88051.085      21452.77      -109503.86    
   1015000   1015000        0.2640831      0.2894531      325.25205      280.24546      45.006581      49.330284      299.35052      8.0570057     -88028.228     -88052.719      21432.323     -109485.04    
   1016000   1016000        0.26410005     0.2597371      323.20633      273.05063      50.155694      49.327119      299.82534     -458.9567      -89452.194     -88057.134      21466.318     -109523.45    
   1017000   1017000        0.26411858     0.23888895     323.50559      268.97274      54.532847      49.323659      299.3411      -122.58052     -88428.981     -88056.381      21431.649     -109488.03    
   1018000   1018000        0.26414269     0.26990793     317.7154       269.44971      48.265698      49.319155      297.68902     -105.85928     -88375.871     -88054.098      21313.366     -109367.46    
   1019000   1019000        0.26417755     0.35169237     316.53614      279.4944       37.041732      49.312649      298.95097      139.31534     -87629.797     -88053.264      21403.716     -109456.98    
   1020000   1020000        0.26418792     0.29676857     322.07307      278.17593      43.89715       49.310712      298.47582     -346.75625     -89103.004     -88048.992      21369.698     -109418.69    
Loop time of 10269.6 on 32 procs for 1000000 steps with 24020 atoms

Performance: 8.413 ns/day, 2.853 hours/ns, 97.375 timesteps/s, 2.339 Matom-step/s
99.4% CPU use with 32 MPI tasks x 1 OpenMP threads

MPI task timing breakdown:
Section |  min time  |  avg time  |  max time  |%varavg| %total
---------------------------------------------------------------
Pair    | 6192.2     | 6847.4     | 7305.9     | 334.7 | 66.68
Bond    | 144.09     | 159.67     | 181.14     |  57.7 |  1.55
Kspace  | 1721.7     | 2184.5     | 2856       | 600.2 | 21.27
Neigh   | 413.23     | 415.74     | 419.11     |   9.5 |  4.05
Comm    | 489.42     | 513.7      | 536.62     |  53.3 |  5.00
Output  | 0.12479    | 0.31234    | 0.54027    |   9.5 |  0.00
Modify  | 104.76     | 123.32     | 148.7      | 110.3 |  1.20
Other   |            | 25.04      |            |       |  0.24

Nlocal:        750.625 ave         789 max         690 min
Histogram: 1 0 1 3 5 2 8 7 3 2
Nghost:        11328.8 ave       11414 max       11262 min
Histogram: 3 3 3 6 5 4 2 2 1 3
Neighs:         496914 ave      531616 max      436253 min
Histogram: 1 0 1 1 6 4 3 10 5 1

Total # of neighbors = 15901263
Ave neighs/atom = 662.00096
Ave special neighs/atom = 11.983347
Neighbor list builds = 37155
Dangerous builds = 0
Total wall time: 2:54:34
