units real
atom_style full
boundary p p p

# styles
pair_style lj/charmm/coul/long 8.0 12.0
kspace_style pppm 1e-6
dielectric 1.000000
bond_style harmonic
angle_style harmonic
dihedral_style fourier
improper_style cvff
special_bonds amber
pair_modify mix arithmetic
neighbor 2.0 bin
neigh_modify delay 0 every 1 check yes

# system definition
read_data ../final.data
Reading data file ...
  orthogonal box = (-27.956921 -32.298732 -28.85231) to (27.956921 32.298732 28.85231)
  2 by 4 by 4 MPI processor grid
  reading atoms ...
  24020 atoms
  reading velocities ...
  24020 velocities
  scanning bonds ...
  3 = max bonds/atom
  scanning angles ...
  6 = max angles/atom
  scanning dihedrals ...
  27 = max dihedrals/atom
  reading bonds ...
  24010 bonds
  reading angles ...
  48000 angles
  reading dihedrals ...
  71910 dihedrals
Finding 1-2 1-3 1-4 neighbors ...
  special bond factors lj:    0        0        0.5     
  special bond factors coul:  0        0        0.8333333333333334
     4 = max # of 1-2 neighbors
    12 = max # of 1-3 neighbors
    24 = max # of 1-4 neighbors
    28 = max # of special neighbors
  special bonds CPU = 0.083 seconds
  read_data CPU = 0.454 seconds
# do not reset velocities

# vars
variable tLog equal 1000
variable nEvery equal 10
variable nRepeat equal 100
variable boolDump equal 0
variable tDump equal 1000

variable tPreeq equal 10000
variable tPrerun equal 10000
variable tTCrun equal 1000000

variable diffT_delay equal ${tPreeq}+${tPreeq}
variable diffT_delay equal 10000+${tPreeq}
variable diffT_delay equal 10000+10000
# heatflux of 0.05 give good results over 1 ns
variable heat_flux equal 0.05
variable heat_flux_neg equal -1*v_heat_flux

# defining region
variable hot_lo equal (ly*0)+ylo
variable hot_hi equal (ly*0.05)+ylo
variable cold_lo equal (ly*0.50)+ylo
variable cold_hi equal (ly*0.55)+ylo

print "DEBUG: ${hot_lo} ${hot_hi} ${cold_lo} ${cold_hi}"
DEBUG: -32.2987315657928 -29.0688584092136 0 3.22987315657929

# define heating and cooling block regions
region hot block INF INF ${hot_lo} ${hot_hi} INF INF units box
region hot block INF INF -32.2987315657928 ${hot_hi} INF INF units box
region hot block INF INF -32.2987315657928 -29.0688584092136 INF INF units box
region cold block INF INF ${cold_lo} ${cold_hi} INF INF units box
region cold block INF INF 0 ${cold_hi} INF INF units box
region cold block INF INF 0 3.22987315657929 INF INF units box
compute Thot all temp/region hot
compute Tcold all temp/region cold

# STEP 1 - 1st equilibration (nve)
# 1a - thermo output for md2
thermo_style custom step time temp c_Thot c_Tcold press enthalpy etotal ke pe
thermo_modify colname c_Thot Temp_hot colname c_Tcold Temp_cold
thermo_modify flush yes
thermo ${tLog}
thermo 1000

# 1b - nve equilibration
timestep 1.0
fix md2 all nve
run ${tPreeq}
run 10000
PPPM initialization ...
  using 12-bit tables for long-range coulomb (src/kspace.cpp:342)
  G vector (1/distance) = 0.25883856
  grid = 45 50 45
  stencil order = 5
  estimated absolute RMS force accuracy = 0.0003737492
  estimated relative force accuracy = 1.1255346e-06
  using double precision FFTW3
  3d grid and FFT values/proc = 9918 4500
Generated 3 of 3 mixed pair_coeff terms from arithmetic mixing rule
Neighbor list info ...
  update: every = 1 steps, delay = 0 steps, check = yes
  max neighbors/atom: 2000, page size: 100000
  master list distance cutoff = 14
  ghost atom cutoff = 14
  binsize = 7, bins = 8 10 9
  1 neighbor lists, perpetual/occasional/extra = 1 0 0
  (1) pair lj/charmm/coul/long, perpetual
      attributes: half, newton on
      pair build: half/bin/newton
      stencil: half/bin/3d
      bin: standard
Per MPI rank memory allocation (min/avg/max) = 21.64 | 21.99 | 22.2 Mbytes
   Step          Time           Temp         Temp_hot      Temp_cold        Press         Enthalpy        TotEng         KinEng         PotEng    
         0   0              299.31856      303.31334      302.95506      529.8002      -86442.089     -88052.488      21430.034     -109482.52    
      1000   1000           298.4305       306.43337      295.32393      197.31813     -87453.057     -88052.832      21366.453     -109419.28    
      2000   2000           298.89996      304.62255      300.2398      -303.14149     -88979.205     -88057.766      21400.064     -109457.83    
      3000   3000           301.61727      309.401        300.81257     -130.11563     -88459.098     -88063.594      21594.613     -109658.21    
      4000   4000           298.25845      297.82132      300.06818      106.7854      -87731.653     -88056.242      21354.134     -109410.38    
      5000   5000           298.84073      304.89997      303.36242     -284.27472     -88911.752     -88047.661      21395.824     -109443.48    
      6000   6000           299.47001      314.08802      288.01154      434.12065     -86743.031     -88062.599      21440.878     -109503.48    
      7000   7000           298.37277      305.49046      307.3105      -35.045455     -88161.82      -88055.295      21362.32      -109417.61    
      8000   8000           298.86132      302.22955      306.28457      249.56809     -87298.095     -88056.691      21397.298     -109453.99    
      9000   9000           298.65159      304.56146      305.56327     -32.826304     -88154.793     -88055.013      21382.282     -109437.3     
     10000   10000          299.44555      296.83853      290.03795      210.20371     -87419.091     -88058.033      21439.126     -109497.16    
Loop time of 102.084 on 32 procs for 10000 steps with 24020 atoms

Performance: 8.464 ns/day, 2.836 hours/ns, 97.958 timesteps/s, 2.353 Matom-step/s
99.3% CPU use with 32 MPI tasks x 1 OpenMP threads

MPI task timing breakdown:
Section |  min time  |  avg time  |  max time  |%varavg| %total
---------------------------------------------------------------
Pair    | 63.307     | 69.496     | 74.201     |  35.2 | 68.08
Bond    | 1.4245     | 1.5971     | 1.7299     |   5.4 |  1.56
Kspace  | 16.488     | 21.042     | 27.363     |  64.6 | 20.61
Neigh   | 4.0868     | 4.1392     | 4.1724     |   1.2 |  4.05
Comm    | 4.1516     | 4.8585     | 5.3632     |  16.3 |  4.76
Output  | 0.0010455  | 0.0013844  | 0.0037542  |   1.2 |  0.00
Modify  | 0.039086   | 0.04359    | 0.048064   |   1.0 |  0.04
Other   |            | 0.907      |            |       |  0.89

Nlocal:        750.625 ave         797 max         715 min
Histogram: 5 1 3 4 8 3 3 2 1 2
Nghost:          11324 ave       11448 max       11165 min
Histogram: 2 0 2 4 3 7 5 4 2 3
Neighs:         497018 ave      534126 max      462194 min
Histogram: 4 4 1 2 5 2 5 5 1 3

Total # of neighbors = 15904587
Ave neighs/atom = 662.13934
Ave special neighs/atom = 11.983347
Neighbor list builds = 370
Dangerous builds = 0
unfix md2

# STEP 2 - MD for thermal conductivity
# 2a - impose nve
fix md3 all nve

# 2b - impose heat flux
fix hot all ehex 1 ${heat_flux} region hot
fix hot all ehex 1 0.05 region hot
fix cold all ehex 1 ${heat_flux_neg} region cold
fix cold all ehex 1 -0.05 region cold

# 2c - calculate thermal profile
compute ke all ke/atom
variable temp atom c_ke/(1.5*0.001987204)

compute layers all chunk/atom bin/1d y lower 0.05 units reduced
fix bins all ave/chunk ${nEvery} ${nRepeat} ${tLog} layers v_temp file Tprofile_y_ehex.dat
fix bins all ave/chunk 10 ${nRepeat} ${tLog} layers v_temp file Tprofile_y_ehex.dat
fix bins all ave/chunk 10 100 ${tLog} layers v_temp file Tprofile_y_ehex.dat
fix bins all ave/chunk 10 100 1000 layers v_temp file Tprofile_y_ehex.dat

variable tdiff equal c_Thot-c_Tcold
fix ave all ave/time ${nEvery} ${nRepeat} ${tLog} v_tdiff ave running start ${diffT_delay}
fix ave all ave/time 10 ${nRepeat} ${tLog} v_tdiff ave running start ${diffT_delay}
fix ave all ave/time 10 100 ${tLog} v_tdiff ave running start ${diffT_delay}
fix ave all ave/time 10 100 1000 v_tdiff ave running start ${diffT_delay}
fix ave all ave/time 10 100 1000 v_tdiff ave running start 20000

# pre define kappa
variable kappa_inst equal 0
variable kappa equal 0

# 2d - thermo out
# dump dump_tc all custom 1000 dump.tc_x_ehex.lammpstrj id type mol x y z ix iy iz vx vy vz
thermo_style custom step time v_kappa v_kappa_inst c_Thot c_Tcold v_tdiff f_ave temp press enthalpy etotal ke pe
WARNING: New thermo_style command, previous thermo_modify settings will be lost (src/output.cpp:904)
thermo_modify colname v_kappa kappa colname v_kappa_inst kappa_inst colname c_Thot Temp_hot colname c_Tcold Temp_cold colname v_tdiff dTemp_step colname f_ave dTemp
thermo_modify flush yes
thermo ${tLog}
thermo 1000

# 2e - prerun
run ${tPrerun}
run 10000
PPPM initialization ...
  using 12-bit tables for long-range coulomb (src/kspace.cpp:342)
  G vector (1/distance) = 0.25883856
  grid = 45 50 45
  stencil order = 5
  estimated absolute RMS force accuracy = 0.0003737492
  estimated relative force accuracy = 1.1255346e-06
  using double precision FFTW3
  3d grid and FFT values/proc = 9918 4500
Generated 3 of 3 mixed pair_coeff terms from arithmetic mixing rule
Per MPI rank memory allocation (min/avg/max) = 22.14 | 22.56 | 22.7 Mbytes
   Step          Time          kappa        kappa_inst      Temp_hot      Temp_cold      dTemp_step       dTemp           Temp          Press         Enthalpy        TotEng         KinEng         PotEng    
     10000   10000          0              0              297.74254      290.03795      7.7045903      0              299.44555      210.20371     -87419.091     -88058.033      21439.126     -109497.16    
     11000   11000          0              0              317.18634      301.38687      15.799468      0              299.4241       406.0536      -86823.986     -88058.24       21437.591     -109495.83    
     12000   12000          0              0              307.48886      296.82774      10.661119      0              299.07789      1255.2647     -84242.875     -88058.42       21412.804     -109471.22    
     13000   13000          0              0              310.66827      294.80264      15.865627      0              299.93715      235.26525     -87344.941     -88060.061      21474.323     -109534.38    
     14000   14000          0              0              311.16285      283.8034       27.359452      0              297.25129     -337.58866     -89076.245     -88050.099      21282.026     -109332.13    
     15000   15000          0              0              311.78736      292.92674      18.860615      0              296.96024     -669.12704     -90087.936     -88054.035      21261.188     -109315.22    
     16000   16000          0              0              310.8487       282.96612      27.882581      0              299.43857      231.96449     -87343.123     -88048.21       21438.627     -109486.84    
     17000   17000          0              0              306.96222      294.26873      12.693488      0              298.329       -407.42993     -89296.364     -88057.927      21359.186     -109417.11    
     18000   18000          0              0              302.33296      294.06918      8.2637793      0              298.71966      503.67489     -86523.028     -88054.015      21387.156     -109441.17    
     19000   19000          0              0              310.36568      286.60662      23.759059      0              297.75228     -434.0833      -89376.285     -88056.831      21317.895     -109374.73    
     20000   20000          0              0              319.04504      292.69971      26.345334      29.589897      297.48727      601.50664     -86224.328     -88052.688      21298.921     -109351.61    
Loop time of 102.683 on 32 procs for 10000 steps with 24020 atoms

Performance: 8.414 ns/day, 2.852 hours/ns, 97.387 timesteps/s, 2.339 Matom-step/s
99.3% CPU use with 32 MPI tasks x 1 OpenMP threads

MPI task timing breakdown:
Section |  min time  |  avg time  |  max time  |%varavg| %total
---------------------------------------------------------------
Pair    | 63.147     | 68.941     | 73.949     |  35.7 | 67.14
Bond    | 1.4377     | 1.6008     | 1.7158     |   5.3 |  1.56
Kspace  | 16.601     | 21.527     | 27.514     |  64.5 | 20.96
Neigh   | 4.0713     | 4.1162     | 4.1458     |   1.1 |  4.01
Comm    | 4.5882     | 5.0567     | 5.4232     |  11.3 |  4.92
Output  | 0.0015961  | 0.0017849  | 0.0031291  |   0.6 |  0.00
Modify  | 0.8695     | 1.1857     | 1.5735     |  18.8 |  1.15
Other   |            | 0.2544     |            |       |  0.25

Nlocal:        750.625 ave         792 max         714 min
Histogram: 1 6 3 3 4 6 2 2 3 2
Nghost:          11328 ave       11443 max       11220 min
Histogram: 2 3 3 3 9 3 1 3 3 2
Neighs:         497010 ave      536367 max      458915 min
Histogram: 5 1 2 3 4 6 4 2 2 3

Total # of neighbors = 15904328
Ave neighs/atom = 662.12856
Ave special neighs/atom = 11.983347
Neighbor list builds = 367
Dangerous builds = 0

# 2f - calc kappa
variable kappa_inst equal (${heat_flux}/(lx*lz)/2.0)*(ly/2.0)/v_tdiff*69478.5785
variable kappa_inst equal (0.05/(lx*lz)/2.0)*(ly/2.0)/v_tdiff*69478.5785
variable kappa equal (${heat_flux}/(lx*lz)/2.0)*(ly/2.0)/f_ave*69478.5785
variable kappa equal (0.05/(lx*lz)/2.0)*(ly/2.0)/f_ave*69478.5785

# 2g - md run for kappa calculation
# optional traj dump
if "${boolDump} == 1" then     "dump tc_dump all atom ${tDump} dump.tc_y.lammpstrj"
run ${tTCrun}
run 1000000
PPPM initialization ...
  using 12-bit tables for long-range coulomb (src/kspace.cpp:342)
  G vector (1/distance) = 0.25883856
  grid = 45 50 45
  stencil order = 5
  estimated absolute RMS force accuracy = 0.0003737492
  estimated relative force accuracy = 1.1255346e-06
  using double precision FFTW3
  3d grid and FFT values/proc = 9918 4500
Generated 3 of 3 mixed pair_coeff terms from arithmetic mixing rule
Per MPI rank memory allocation (min/avg/max) = 22.39 | 22.81 | 22.95 Mbytes
   Step          Time          kappa        kappa_inst      Temp_hot      Temp_cold      dTemp_step       dTemp           Temp          Press         Enthalpy        TotEng         KinEng         PotEng    
     20000   20000          0.58762873     0.64993666     319.45289      292.69971      26.753182      29.589897      297.48727      601.50666     -86224.328     -88052.688      21298.921     -109351.61    
     21000   21000          0.6278935      0.73259555     299.24451      275.5099       23.734616      27.692394      298.11628     -689.18298     -90156.556     -88061.692      21343.956     -109405.65    
     22000   22000          0.62046466     0.78481413     311.44247      289.28706      22.155404      28.023956      299.52977     -76.192214     -88290.65      -88059.054      21445.157     -109504.21    
     23000   23000          0.59635688     0.38528447     331.49736      286.36739      45.129963      29.156826      297.21829     -1068.0765     -91298.833     -88052.271      21279.663     -109331.93    
     24000   24000          0.57301981     0.36198445     327.38812      279.35325      48.034864      30.344281      298.45953     -926.83055     -90872.902     -88055.676      21368.531     -109424.21    
     25000   25000          0.55770908     0.55020272     316.31806      284.71539      31.602668      31.177319      299.89156     -802.86004     -90500.539     -88060.138      21471.059     -109531.2     
     26000   26000          0.53606473     0.40410108     319.66489      276.63636      43.028527      32.436146      298.42682     -203.03925     -88668.288     -88051.123      21366.189     -109417.31    
     27000   27000          0.52699524     0.61839571     316.97876      288.86105      28.117714      32.994366      301.47119      562.90099     -86350.668     -88061.681      21584.154     -109645.84    
     28000   28000          0.52090498     0.43155797     320.98534      280.69441      40.290934      33.380126      298.50735      500.37849     -86531.958     -88052.925      21371.955     -109424.88    
     29000   29000          0.53144906     0.6361568      315.16834      287.83566      27.332686      32.717856      299.47123     -149.98731     -88512.843     -88056.936      21440.965     -109497.9     
     30000   30000          0.53277921     0.58698024     311.74936      282.12677      29.622588      32.636172      299.44218     -525.47933     -89654.31      -88057.046      21438.885     -109495.93    
     31000   31000          0.53348179     0.4872485      305.78909      270.10325      35.685844      32.593191      298.38852      115.44345     -87702.559     -88053.465      21363.447     -109416.91    
     32000   32000          0.52600478     0.4843954      314.40137      278.50533      35.896034      33.056494      299.04507      320.25829     -87082.998     -88056.465      21410.453     -109466.92    
     33000   33000          0.53090336     0.49236509     319.9365       284.6215       35.315001      32.751486      298.77313     -15.458477     -88096.888     -88049.9        21390.984     -109440.88    
     34000   34000          0.52835965     0.50831278     307.38021      273.17318      34.207037      32.909163      296.44787     -166.83094     -88558.619     -88051.514      21224.504     -109276.02    
     35000   35000          0.52349412     0.4759087      319.82925      283.29309      36.536155      33.215032      299.38341     -54.494441     -88222.764     -88057.121      21434.678     -109491.8     
     36000   36000          0.51706265     0.78839878     304.69686      282.6422       22.054669      33.628177      299.39687      70.020484     -87843.492     -88056.329      21435.641     -109491.97    
     37000   37000          0.50865658     0.34295598     328.27863      277.57861      50.700017      34.183916      297.5758       25.611266     -87973.007     -88050.856      21305.26      -109356.12    
     38000   38000          0.5016617      0.43210596     317.15469      276.91485      40.239839      34.660557      298.16682      580.25906     -86291.079     -88054.854      21347.574     -109402.43    
     39000   39000          0.49354332     0.27978682     342.72635      280.57949      62.146866      35.230695      300.78702     -105.73522     -88383.841     -88062.445      21535.17      -109597.62    
     40000   40000          0.48465333     0.43690702     313.75087      273.95322      39.797653      35.876931      298.18648      395.28243     -86851.645     -88053.158      21348.982     -109402.14    
     41000   41000          0.47608886     0.27290489     327.7595       264.04546      63.714043      36.522329      296.71652     -175.82511     -88582.465     -88048.021      21243.739     -109291.76    
     42000   42000          0.46897238     0.51265015     322.62405      288.70642      33.917622      37.076542      299.57648     -253.16114     -88823.876     -88054.358      21448.501     -109502.86    
     43000   43000          0.4625231      0.33474915     322.14021      270.19721      51.942996      37.593526      298.71113      737.46003     -85816.143     -88057.751      21386.545     -109444.3     
     44000   44000          0.4596263      0.43851575     321.75762      282.10597      39.651652      37.83046       298.77406     -584.94115     -89837.09      -88059.083      21391.05      -109450.13    
     45000   45000          0.45492262     0.33436295     321.2185       269.21551      52.002993      38.221608      299.99756     -93.987801     -88340.506     -88054.817      21478.648     -109533.47    
     46000   46000          0.44986089     0.27071769     334.3835       270.15469      64.228807      38.651669      298.99471      915.90833     -85272.551     -88056.577      21406.848     -109463.43    
     47000   47000          0.4462177      0.42548294     312.90212      272.03591      40.866207      38.967244      298.53396     -233.68915     -88763.391     -88053.061      21373.861     -109426.92    
     48000   48000          0.44238755     0.30079491     325.15532      267.34891      57.806411      39.304619      299.81038     -10.513138     -88089.717     -88057.76       21465.247     -109523.01    
     49000   49000          0.43811588     0.48115997     318.43623      282.29882      36.137407      39.687842      297.9199      -369.67583     -89177.906     -88054.227      21329.896     -109384.12    
     50000   50000          0.43532834     0.40546295     323.84661      280.96261      42.884002      39.941975      297.73632     -225.77563     -88737.056     -88050.781      21316.752     -109367.53    
     51000   51000          0.4304986      0.34535602     324.05905      273.71137      50.347679      40.390083      297.39456      95.695288     -87759.023     -88049.902      21292.284     -109342.19    
     52000   52000          0.42765607     0.43350184     308.90294      268.79268      40.110265      40.658546      301.36038     -84.070912     -88313.131     -88057.586      21576.221     -109633.81    
     53000   53000          0.42439379     0.47799438     315.84912      279.47239      36.376733      40.971085      299.66211     -279.89047     -88909.659     -88058.894      21454.631     -109513.53    
     54000   54000          0.42042209     0.27687944     331.95199      269.15255      62.799441      41.358136      301.60826      303.83002     -87136.648     -88060.18       21593.968     -109654.15    
     55000   55000          0.41759003     0.44359525     315.76537      276.56776      39.197611      41.638624      299.59429     -154.20223     -88524.981     -88056.263      21449.776     -109506.04    
     56000   56000          0.41431549     0.34624235     323.30516      273.08636      50.218796      41.967714      299.56518     -403.34063     -89286.631     -88060.624      21447.692     -109508.32    
     57000   57000          0.41003105     0.37972965     318.78129      272.99115      45.79014       42.406237      300.14075     -231.70414     -88767.155     -88062.859      21488.9       -109551.76    
     58000   58000          0.40770608     0.30360901     312.23927      254.96865      57.270613      42.648061      298.47042     -272.72883     -88880.174     -88051.178      21369.311     -109420.49    
     59000   59000          0.40542062     0.36393113     318.05354      270.27561      47.777924      42.888479      299.38782     -254.67006     -88831.859     -88057.755      21434.993     -109492.75    
     60000   60000          0.40350932     0.29689823     325.75847      267.19338      58.565098      43.091629      299.86594      141.95494     -87623.223     -88054.714      21469.225     -109523.94    
     61000   61000          0.40247508     0.37127513     315.46123      268.62838      46.832854      43.202362      300.12896      222.63358     -87382.356     -88059.081      21488.056     -109547.14    
     62000   62000          0.40136121     0.28628814     332.95135      272.21578      60.735572      43.322258      299.85494      48.658201     -87909.388     -88057.291      21468.437     -109525.73    
     63000   63000          0.3988704      0.30873522     326.93519      270.61549      56.319698      43.592791      300.24184      511.26558     -86504.356     -88058.417      21496.138     -109554.55    
     64000   64000          0.39695408     0.35069438     327.63874      278.05747      49.581273      43.803238      298.5634      -105.12382     -88371.885     -88052.347      21375.968     -109428.32    
     65000   65000          0.39557508     0.33802823     333.62204      282.18292      51.439117      43.955939      298.99815     -595.6895      -89860.475     -88049.798      21407.094     -109456.89    
     66000   66000          0.39348898     0.37081378     332.81109      285.91997      46.891121      44.188973      300.25894      203.72744     -87438.191     -88057.448      21497.362     -109554.81    
     67000   67000          0.3915         0.35336699     320.55587      271.3496       49.206277      44.413471      298.70118      202.42328     -87445.058     -88060.351      21385.832     -109446.18    
     68000   68000          0.3887065      0.19675231     351.06145      262.68701      88.374434      44.732656      299.4363      -874.85219     -90713.191     -88053.961      21438.464     -109492.43    
     69000   69000          0.38520755     0.23548738     334.67189      260.83408      73.837817      45.138975      298.9042       10.373304     -88024.199     -88055.73       21400.368     -109456.1     
     70000   70000          0.38213687     0.31139525     322.78945      266.95085      55.838597      45.501691      298.84804     -945.0577      -90923.089     -88050.459      21396.347     -109446.81    
     71000   71000          0.37970071     0.30120696     334.24404      276.51671      57.727331      45.793631      298.97405     -159.0828      -88537.493     -88053.939      21405.369     -109459.31    
     72000   72000          0.37653239     0.23065429     341.0066       265.6216       75.385003      46.178959      298.54862      122.37317     -87688.707     -88060.677      21374.91      -109435.59    
     73000   73000          0.37383896     0.28506557     333.60485      272.6088       60.996052      46.511669      297.07707     -423.27325     -89333.679     -88047.083      21269.552     -109316.64    
     74000   74000          0.37142661     0.26724227     329.5838       264.51971      65.064086      46.813754      300.62172      647.89226     -86095.338     -88064.694      21523.336     -109588.03    
     75000   75000          0.36985721     0.32340506     327.24536      273.48036      53.765003      47.012398      299.59227      396.63178     -86846.979     -88052.594      21449.631     -109502.23    
     76000   76000          0.36835753     0.26802857     334.84916      269.97595      64.873211      47.203797      300.12393      191.39154     -87477.653     -88059.413      21487.696     -109547.11    
     77000   77000          0.36695508     0.34537096     332.15973      281.81423      50.345501      47.384202      298.60895      311.35842     -87107.261     -88053.677      21379.229     -109432.91    
     78000   78000          0.36559181     0.32391406     326.80222      273.1217       53.680517      47.560896      297.17804     -416.41093     -89320.211     -88054.474      21276.782     -109331.26    
     79000   79000          0.36461208     0.45222023     312.56501      274.115        38.450013      47.688694      299.99273      210.4188      -87417.083     -88056.679      21478.302     -109534.98    
     80000   80000          0.36365486     0.41372196     323.09143      281.06351      42.027921      47.814222      300.16859      135.00492     -87649.432     -88059.797      21490.893     -109550.69    
     81000   81000          0.36275484     0.43531286     321.34305      281.39965      39.943396      47.932852      300.07321      441.22868     -86716.729     -88057.903      21484.064     -109541.97    
     82000   82000          0.36171689     0.43073831     314.00651      273.6389       40.367605      48.070396      300.64927      507.01555     -86518.664     -88059.805      21525.308     -109585.11    
     83000   83000          0.36090549     0.28158887     333.9745       272.22534      61.749153      48.178469      298.59498      369.90995     -86929.723     -88054.114      21378.229     -109432.34    
     84000   84000          0.36035555     0.36803047     322.8866       275.64086      47.245745      48.251995      299.45094      758.90178     -85753.794     -88060.577      21439.512     -109500.09    
     85000   85000          0.35950937     0.26436952     335.39201      269.62091      65.771098      48.365566      299.10184     -247.67386     -88810.678     -88057.84       21414.518     -109472.36    
     86000   86000          0.35813289     0.2693459      331.02364      266.46771      64.555926      48.551458      298.01271     -137.86887     -88477.268     -88058.198      21336.541     -109394.74    
     87000   87000          0.35708901     0.3318384      321.43746      269.03884      52.39862       48.693389      298.59874      281.12222     -87193.402     -88047.91       21378.498     -109426.41    
     88000   88000          0.35627209     0.278676       327.99005      265.59546      62.394586      48.805041      298.14648     -172.82261     -88578.703     -88053.386      21346.118     -109399.5     
     89000   89000          0.35452501     0.27017502     332.04371      267.68589      64.357815      49.04555       300.8684       757.54676     -85763.309     -88065.974      21540.997     -109606.97    
     90000   90000          0.35288597     0.25974228     338.68252      271.73972      66.942793      49.27335       300.89961      88.910379     -87792.423     -88062.678      21543.232     -109605.91    
     91000   91000          0.35151038     0.26539431     336.16526      270.64813      65.517131      49.466174      301.53837      452.46038     -86680.736     -88056.05       21588.964     -109645.01    
     92000   92000          0.35018004     0.45095908     310.84529      272.28775      38.557542      49.654098      298.29315      192.83609     -87467.951     -88054.102      21356.619     -109410.72    
     93000   93000          0.34908986     0.21333502     344.75579      263.25078      81.505015      49.809164      299.24974     -169.34544     -88574.829     -88060.081      21425.107     -109485.19    
     94000   94000          0.34736163     0.28102849     333.34462      271.47234      61.872282      50.056979      301.03468     -2.1853561     -88067.55      -88060.907      21552.902     -109613.81    
     95000   95000          0.34575148     0.2397024      350.78269      278.24327      72.539423      50.290093      298.78693     -42.822715     -88186.738     -88056.572      21391.972     -109448.54    
     96000   96000          0.34435275     0.29154367     341.50255      281.86184      59.640719      50.494367      300.03776      217.09778     -87397.863     -88057.761      21481.526     -109539.29    
     97000   97000          0.3427221      0.29841856     336.65591      278.38918      58.26673       50.734616      299.84641     -677.19453     -90116.403     -88057.98       21467.827     -109525.81    
     98000   98000          0.34133486     0.22903729     338.36752      262.45031      75.917217      50.94081       299.15696      777.79168     -85692.255     -88056.456      21418.465     -109474.92    
     99000   99000          0.33954951     0.23496438     345.95013      271.94796      74.002171      51.208655      297.99678      161.37578     -87561.398     -88051.921      21335.4       -109387.32    
    100000   100000         0.33812949     0.34776081     329.47577      279.47625      49.999521      51.423713      300.01598     -386.98498     -89228.58      -88052.288      21479.967     -109532.25    
    101000   101000         0.33689951     0.22704435     349.74176      273.15816      76.583602      51.611456      300.16435     -152.79759     -88520.634     -88056.185      21490.59      -109546.77    
    102000   102000         0.33541884     0.18083493     351.20342      255.05013      96.153293      51.839288      299.76691      230.89404     -87355.158     -88056.992      21462.135     -109519.13    
    103000   103000         0.33422849     0.31842861     324.41536      269.81011      54.60525       52.023914      299.13056     -813.66053     -90529.212     -88055.982      21416.574     -109472.56    
    104000   104000         0.33345735     0.2346009      338.36782      264.25099      74.116825      52.144222      299.12464      642.77819     -86101.792     -88055.602      21416.151     -109471.75    
    105000   105000         0.33245747     0.28190693     324.5236       262.84412      61.679484      52.301047      298.83407      352.68722     -86979.948     -88051.988      21395.347     -109447.34    
    106000   106000         0.33158828     0.39826838     322.24065      278.58196      43.658686      52.438144      299.373       -423.88974     -89342.602     -88054.132      21433.932     -109488.06    
    107000   107000         0.33052334     0.24623707     335.73783      265.12346      70.614365      52.607099      298.06183     -625.56642     -89955.568     -88054.075      21340.058     -109394.13    
    108000   108000         0.3290958      0.24038837     340.4053       268.07288      72.332425      52.835296      298.57923     -55.371373     -88221.962     -88053.653      21377.102     -109430.76    
    109000   109000         0.32810451     0.26272357     335.55076      269.36761      66.183153      52.994926      299.07445      237.00892     -87330.932     -88051.352      21412.557     -109463.91    
    110000   110000         0.32732085     0.31175185     323.92622      268.15149      55.774727      53.121804      298.91797      533.51367     -86440.594     -88062.28       21401.354     -109463.63    
    111000   111000         0.32589681     0.22549841     341.30233      264.1937       77.108633      53.353925      298.42158     -186.73176     -88626.404     -88058.808      21365.814     -109424.62    
    112000   112000         0.32448991     0.23767205     339.11436      265.95525      73.159104      53.585253      299.53205      180.13049     -87514.341     -88061.871      21445.319     -109507.19    
    113000   113000         0.32355021     0.2121072      341.79031      259.81349      81.97682       53.740883      300.45434     -763.46265     -90380.844     -88060.197      21511.352     -109571.55    
    114000   114000         0.32242905     0.25265236     325.65014      256.8288       68.82134       53.927752      299.2812      -423.90482     -89342.016     -88053.501      21427.36      -109480.86    
    115000   115000         0.32153696     0.242318       344.33837      272.58194      71.756428      54.077372      300.50908      385.665       -86891.545     -88063.826      21515.271     -109579.1     
    116000   116000         0.32053883     0.21169233     341.32756      259.19008      82.137476      54.245765      297.96943     -686.75819     -90135.941     -88048.447      21333.442     -109381.89    
    117000   117000         0.31957185     0.23342739     343.59611      269.10667      74.489433      54.409905      300.70668      17.614225     -88006.744     -88060.285      21529.418     -109589.7     
    118000   118000         0.31863045     0.27192115     339.00645      275.0619       63.944545      54.570661      298.72286     -157.38721     -88530.561     -88052.162      21387.384     -109439.55    
    119000   119000         0.31797604     0.24120943     337.51613      265.42992      72.086212      54.682969      298.64659      378.34947     -86902.985     -88053.029      21381.924     -109434.95    
    120000   120000         0.31689268     0.2321713      346.84896      271.95652      74.892437      54.869914      298.72764     -345.52817     -89102.287     -88052.008      21387.727     -109439.73    
    121000   121000         0.31602266     0.29456961     322.7372       263.70913      59.028064      55.020972      297.61007     -561.37269     -89760.816     -88054.449      21307.713     -109362.16    
    122000   122000         0.31516496     0.28869458     334.50489      274.27559      60.229305      55.170709      299.88198      89.705983     -87785.807     -88058.481      21470.373     -109528.85    
    123000   123000         0.31456542     0.37187718     321.85276      275.09572      46.757034      55.27586       300.2797      -239.7502      -88790.972     -88062.219      21498.848     -109561.07    
    124000   124000         0.31415245     0.24314835     336.6648       265.15343      71.511379      55.348522      298.88181      199.74113     -87454.125     -88061.265      21398.765     -109460.03    
    125000   125000         0.31329166     0.24379258     338.23842      266.91601      71.322409      55.500597      300.05671      715.1174      -85887.161     -88060.856      21482.883     -109543.74    
    126000   126000         0.31242072     0.25654446     326.36388      258.58664      67.777236      55.655316      297.12794     -36.468053     -88158.068     -88047.219      21273.195     -109320.41    
    127000   127000         0.31154802     0.23452897     342.87729      268.73773      74.139559      55.811217      298.96912     -463.50115     -89459.25      -88050.376      21405.016     -109455.39    
    128000   128000         0.31058932     0.26010854     325.58948      258.74095      66.848531      55.983489      297.135        173.9346      -87524.507     -88053.205      21273.7       -109326.9     
    129000   129000         0.30985582     0.23488175     336.44358      262.41538      74.028203      56.116015      301.59026     -137.73891     -88477.596     -88058.92       21592.68      -109651.6     
    130000   130000         0.30898027     0.22327518     343.67757      265.80114      77.876431      56.27503       300.59176     -122.69349     -88429.052     -88056.109      21521.191     -109577.3     
    131000   131000         0.30814524     0.20789756     337.34063      253.70389      83.636738      56.427527      298.09352      475.66044     -86603.265     -88049.099      21342.327     -109391.43    
    132000   132000         0.3072259      0.25150103     336.08639      266.95         69.136392      56.596382      297.66651     -26.321277     -88126.266     -88046.259      21311.754     -109358.01    
    133000   133000         0.30654115     0.2465743      345.0426       274.52482      70.517788      56.722805      299.24689      295.45508     -87156.122     -88054.197      21424.903     -109479.1     
    134000   134000         0.30586194     0.24855942     334.85883      264.90424      69.954596      56.848767      298.52931     -30.785488     -88147.766     -88054.189      21373.528     -109427.72    
    135000   135000         0.3050875      0.25849473     336.535        269.26913      67.265874      56.993072      298.28116     -22.6905       -88123.352     -88054.381      21355.761     -109410.14    
    136000   136000         0.30420359     0.24768265     332.08014      261.87791      70.202229      57.158674      300.06316     -103.40263     -88373.645     -88059.339      21483.345     -109542.68    
    137000   137000         0.30350635     0.20236572     345.30623      259.38321      85.923022      57.289983      301.65116     -477.54753     -89514.644     -88063.074      21597.039     -109660.11    
    138000   138000         0.30276189     0.25348314     335.31533      266.71955      68.595782      57.430855      300.48341      499.79006     -86541.268     -88060.447      21513.433     -109573.88    
    139000   139000         0.30209104     0.28439296     330.80786      269.66755      61.14031       57.558391      299.03407     -383.13191     -89223.862     -88059.281      21409.666     -109468.95    
    140000   140000         0.30164355     0.26266312     327.72478      261.5264       66.198383      57.643778      298.32511      353.27376     -86980.508     -88054.331      21358.908     -109413.24    
    141000   141000         0.30110063     0.29536132     326.6121       267.74226      58.86984       57.747716      300.16376     -336.85558     -89083.464     -88059.547      21490.548     -109550.09    
    142000   142000         0.3006782      0.2434389      334.99559      263.56956      71.42603       57.828848      299.83518     -73.994577     -88281.804     -88056.888      21467.022     -109523.91    
    143000   143000         0.30036839     0.31415267     323.28787      267.93938      55.348484      57.888494      299.09303      332.35271     -87044.94      -88055.171      21413.888     -109469.06    
    144000   144000         0.30003358     0.31528404     332.05234      276.90247      55.149871      57.953094      297.78272     -259.07114     -88839.359     -88051.877      21320.074     -109371.95    
    145000   145000         0.29963141     0.23519137     328.74991      254.81916      73.930749      58.030879      299.30576     -357.21322     -89143.754     -88057.957      21429.118     -109487.07    
    146000   146000         0.29916077     0.25296184     324.91612      256.17898      68.737142      58.122172      299.3145      -258.31382     -88838.315     -88053.136      21429.744     -109482.88    
    147000   147000         0.29905428     0.24712473     334.61298      264.25226      70.36072       58.142869      298.19523     -99.194859     -88354.326     -88052.81       21349.608     -109402.42    
    148000   148000         0.29883919     0.29098576     331.36207      271.607        59.755067      58.184717      301.24693     -77.461998     -88295.499     -88060.043      21568.098     -109628.14    
    149000   149000         0.29871609     0.28903454     321.23353      261.07507      60.158465      58.208695      300.43001     -511.15314     -89607.25      -88053.532      21509.61      -109563.14    
    150000   150000         0.29835724     0.28777407     325.57217      265.15021      60.421962      58.278706      298.6593       546.70029     -86395.891     -88057.66       21382.834     -109440.49    
    151000   151000         0.29792614     0.26012281     332.20379      265.35892      66.844865      58.363037      299.1463       347.56234     -86994.943     -88051.405      21417.701     -109469.11    
    152000   152000         0.29751695     0.29749828     333.33044      274.88346      58.446973      58.443306      298.54901     -132.13697     -88454.855     -88053.207      21374.938     -109428.15    
    153000   153000         0.29730334     0.21713179     348.82014      268.74032      80.079817      58.485296      300.1104      -494.90544     -89563.763     -88059.432      21486.727     -109546.16    
    154000   154000         0.29694516     0.26054788     332.56318      265.82737      66.735811      58.555842      300.37665      7.3141329     -88038.003     -88060.236      21505.79      -109566.03    
    155000   155000         0.2967137      0.27167519     330.53543      266.533        64.002436      58.60152       297.56683      84.042864     -87790.998     -88046.457      21304.617     -109351.07    
    156000   156000         0.2964899      0.23082912     336.29251      260.9646       75.327905      58.645754      299.56536     -691.16267     -90153.743     -88052.862      21447.704     -109500.57    
    157000   157000         0.29627911     0.25203121     330.56668      261.57573      68.990956      58.687479      301.32748      367.35253     -86943.501     -88060.118      21573.866     -109633.98    
    158000   158000         0.29618288     0.24754249     335.83285      265.59088      70.241977      58.706546      300.21686      428.29314     -86753.91      -88055.764      21494.349     -109550.11    
    159000   159000         0.29594364     0.25975786     340.04241      273.10363      66.938779      58.754004      299.15923      159.39052     -87572.791     -88057.279      21418.627     -109475.91    
    160000   160000         0.29574719     0.29215576     337.57359      278.05782      59.515767      58.793032      299.16521     -1.2633579     -88062.842     -88059.002      21419.055     -109478.06    
    161000   161000         0.29562053     0.24927741     337.72139      267.96828      69.753109      58.818223      297.58231      436.22108     -86727.163     -88053.115      21305.726     -109358.84    
    162000   162000         0.29529081     0.21411154     336.64696      255.43754      81.209419      58.883898      299.12638      377.9929      -86906.102     -88055.062      21416.275     -109471.34    
    163000   163000         0.29489781     0.23806382     334.82597      261.78726      73.038708      58.96237       299.09492     -231.0192      -88755.715     -88053.502      21414.022     -109467.52    
    164000   164000         0.29483235     0.30146277     327.50595      269.8276       57.678346      58.975461      298.40529     -382.16139     -89219.972     -88058.341      21364.648     -109422.99    
    165000   165000         0.2947635      0.25132124     337.79957      268.61372      69.185851      58.989237      300.26622     -631.20277     -89977.042     -88058.417      21497.883     -109556.3     
    166000   166000         0.29471199     0.27590299     324.97504      261.95334      63.021694      58.999548      299.89158     -117.43927     -88412.356     -88055.384      21471.061     -109526.44    
    167000   167000         0.29459609     0.36774341     324.16798      276.88535      47.282625      59.022759      299.64839     -287.47247     -88929.847     -88056.036      21453.649     -109509.69    
    168000   168000         0.29446096     0.29351528     325.47312      266.23302      59.240098      59.049845      299.63696      203.63782     -87436.141     -88055.125      21452.831     -109507.96    
    169000   169000         0.29430903     0.31156411     329.91195      274.10362      55.808334      59.080328      300.41321     -279.98493     -88913.721     -88062.67       21508.407     -109571.08    
    170000   170000         0.29452225     0.42609228     311.26875      270.46099      40.807765      59.037557      298.26079     -631.98174     -89971.531     -88050.538      21354.303     -109404.84    
    171000   171000         0.29466438     0.29382142     321.15561      261.97723      59.178375      59.009081      297.56224      92.096265     -87771.075     -88051.014      21304.289     -109355.3     
    172000   172000         0.29465388     0.26740123     331.3405       266.31509      65.025407      59.011183      299.84305      150.78855     -87597.141     -88055.483      21467.586     -109523.07    
    173000   173000         0.2945376      0.26001574     334.30326      267.43087      66.872389      59.03448       300.23261      2.7596399     -88049.502     -88057.89       21495.477     -109553.37    
    174000   174000         0.29443266     0.3020891      331.22409      273.66533      57.55876       59.055521      299.66376     -677.46421     -90112.672     -88053.429      21454.75      -109508.18    
    175000   175000         0.29447438     0.29592023     324.17759      265.41893      58.758653      59.047153      297.70242     -399.34737     -89267.751     -88053.881      21314.325     -109368.21    
    176000   176000         0.29427642     0.2538104      332.97454      264.46721      68.507334      59.086874      297.79569      389.75297     -86864.488     -88049.194      21321.003     -109370.2     
    177000   177000         0.29411627     0.33806324     326.19523      274.76144      51.43379       59.119048      301.23412      499.77089     -86539.265     -88058.386      21567.181     -109625.57    
    178000   178000         0.29400159     0.27767464     324.38093      261.76133      62.619596      59.142108      298.24543      550.24346     -86375.832     -88048.371      21353.203     -109401.57    
    179000   179000         0.29380375     0.22853535     337.01465      260.93069      76.083957      59.181933      299.82672     -79.99025      -88298.682     -88055.541      21466.417     -109521.96    
    180000   180000         0.29366274     0.2748889      328.93003      265.67584      63.254188      59.210352      299.16303     -404.50262     -89288.878     -88059.338      21418.899     -109478.24    
    181000   181000         0.29338017     0.23084385     344.40211      269.07901      75.3231        59.26738       299.99766      563.92565     -86342.485     -88056.613      21478.656     -109535.27    
    182000   182000         0.29313329     0.24039028     332.67485      260.343        72.331852      59.317295      299.89674      0.9797966     -88054.384     -88057.362      21471.43      -109528.79    
    183000   183000         0.29283875     0.25804494     333.17705      265.79393      67.383122      59.376958      297.62997      521.40556     -86467.754     -88052.636      21309.138     -109361.77    
    184000   184000         0.29256226     0.23028768     340.61308      265.10806      75.505011      59.433073      301.0139      -486.44995     -89532.87      -88054.241      21551.414     -109605.65    
    185000   185000         0.29241873     0.23234621     336.87574      262.03969      74.836055      59.462244      298.19121     -176.87024     -88594.978     -88057.357      21349.321     -109406.68    
    186000   186000         0.29222225     0.33958252     310.25147      259.04779      51.203678      59.502225      299.54496     -102.7743      -88368.327     -88055.931      21446.244     -109502.17    
    187000   187000         0.29207445     0.23385687     334.84684      260.4942       74.352632      59.532335      298.38477     -627.47564     -89970.772     -88063.476      21363.179     -109426.65    
    188000   188000         0.29169583     0.26436616     326.55206      260.78012      65.771936      59.609607      299.18416     -151.1201      -88512.292     -88052.942      21420.412     -109473.35    
    189000   189000         0.29141359     0.2348302      335.10602      261.06157      74.044453      59.667341      297.79715      1014.0736     -84972.234     -88054.646      21321.107     -109375.75    
    190000   190000         0.29127514     0.2973173      327.02903      268.54648      58.482551      59.695702      298.47255      527.12042     -86450.124     -88052.377      21369.464     -109421.84    
    191000   191000         0.29125782     0.32511241     323.30173      269.81908      53.482653      59.699253      299.35606     -800.14597     -90486.351     -88054.2        21432.719     -109486.92    
    192000   192000         0.29139111     0.31490192     323.2086       267.9918       55.216792      59.671945      299.27913     -1049.8829     -91247.862     -88056.602      21427.212     -109483.81    
    193000   193000         0.29135841     0.36267378     336.48731      288.54375      47.943565      59.678641      301.6348      -221.87816     -88734.88      -88060.451      21595.868     -109656.32    
    194000   194000         0.2910903      0.27518031     334.53996      271.35275      63.187203      59.733607      297.64533     -897.56767     -90781.588     -88053.311      21310.238     -109363.55    
    195000   195000         0.29102664     0.27398382     326.04933      262.58619      63.463142      59.746674      297.39999      19.819252     -87988.076     -88048.32       21292.673     -109340.99    
    196000   196000         0.29087979     0.26096842     342.07881      275.45054      66.62827       59.776837      300.52361      1136.8152     -84604.55      -88060.052      21516.311     -109576.36    
    197000   197000         0.29072567     0.25271322     330.34342      261.53865      68.804766      59.808527      299.53997      441.48657     -86714.642     -88056.599      21445.887     -109502.49    
    198000   198000         0.29054241     0.24898041     336.67992      266.84361      69.836313      59.846251      301.92554      68.281919     -87854.796     -88062.348      21616.684     -109679.03    
    199000   199000         0.29041172     0.29406736     327.88638      268.7575       59.128881      59.873183      298.37971     -223.11994     -88731.298     -88053.095      21362.817     -109415.91    
    200000   200000         0.29035068     0.29520237     324.91909      266.01755      58.90154       59.885769      300.19409      158.6102      -87573.612     -88055.729      21492.719     -109548.45    
    201000   201000         0.29027812     0.25983858     335.8502       268.93222      66.917985      59.900739      301.27486      349.06132     -87001.496     -88062.515      21570.098     -109632.61    
    202000   202000         0.29003691     0.23337482     333.27339      258.76717      74.506211      59.950556      297.63501     -787.9311      -90449.343     -88054.321      21309.499     -109363.82    
    203000   203000         0.2896513      0.2103766      343.56705      260.91587      82.651177      60.030367      297.37051     -714.93653     -90225.609     -88052.464      21290.562     -109343.03    
    204000   204000         0.2894493      0.27338877     325.98057      262.37929      63.601275      60.072261      299.45597      92.45172      -87774.727     -88055.746      21439.873     -109495.62    
    205000   205000         0.28934543     0.24135076     329.23925      257.19525      72.043999      60.093827      298.55578      430.20619     -86744.393     -88052.063      21375.422     -109427.48    
    206000   206000         0.2892557      0.30423272     322.50811      265.35491      57.153202      60.112467      296.69504     -113.57052     -88396.359     -88051.146      21242.201     -109293.35    
    207000   207000         0.28914532     0.21030142     334.31399      251.63326      82.680726      60.135416      297.89577      75.35321      -87827.833     -88056.879      21328.169     -109385.05    
    208000   208000         0.28887291     0.30498585     326.67591      269.66384      57.012069      60.192125      298.06408      275.62755     -87219.983     -88057.79       21340.218     -109398.01    
    209000   209000         0.28864831     0.25976621     336.23284      269.29621      66.936627      60.238961      298.6572       127.59308     -87666.944     -88054.78       21382.684     -109437.46    
    210000   210000         0.28851792     0.28567391     335.8709       275.00474      60.86616       60.266184      298.53807      212.69819     -87408.008     -88054.532      21374.155     -109428.69    
    211000   211000         0.28822757     0.20943616     337.9666       254.94429      83.02231       60.326894      297.62074     -345.60012     -89110.628     -88060.13       21308.477     -109368.61    
    212000   212000         0.28798608     0.24361563     330.48169      259.10748      71.374214      60.37748       298.04401     -594.70393     -89858.803     -88051.121      21338.782     -109389.9     
    213000   213000         0.28777189     0.21944928     341.98368      262.74954      79.234135      60.42242       301.98613     -43.743374     -88197.607     -88064.644      21621.022     -109685.67    
    214000   214000         0.28765151     0.29362664     329.37695      270.15932      59.217631      60.447706      298.55905      136.46102     -87634.097     -88048.889      21375.657     -109424.55    
    215000   215000         0.28757931     0.26336536     326.63741      260.61554      66.021871      60.462883      297.93717      500.56174     -86529.553     -88051.077      21331.133     -109382.21    
    216000   216000         0.28747857     0.27224203     324.3596       260.49042      63.869176      60.484071      297.61876     -342.22194     -89090.322     -88050.093      21308.335     -109358.43    
    217000   217000         0.28730246     0.2564783      331.80842      264.0137       67.794717      60.521146      299.83554      432.01148     -86745.711     -88058.868      21467.048     -109525.92    
    218000   218000         0.28724029     0.29737327     332.14139      273.66985      58.471542      60.534244      298.75955     -667.25925     -90080.369     -88052.145      21390.012     -109442.16    
    219000   219000         0.28713203     0.22406836     338.89694      261.29619      77.600755      60.557069      300.40732      167.02492     -87554.901     -88062.596      21507.985     -109570.58    
    220000   220000         0.28694845     0.26283772     340.976        274.82159      66.154409      60.595811      299.14816     -156.31384     -88529.179     -88054.042      21417.835     -109471.88    
    221000   221000         0.28674349     0.21018884     353.17448      270.44947      82.72501       60.639123      299.39793      586.33106     -86277.274     -88059.506      21435.717     -109495.22    
    222000   222000         0.28664015     0.2833931      330.12575      268.76973      61.356024      60.660984      300.10875     -40.725699     -88181.388     -88057.597      21486.609     -109544.21    
    223000   223000         0.28644042     0.24117461     340.66568      268.56906      72.096619      60.703283      297.61339      224.1636      -87372.61      -88053.985      21307.951     -109361.94    
    224000   224000         0.28608062     0.27536397     331.66283      268.51778      63.145059      60.77963       299.05498     -180.13489     -88599.119     -88051.575      21411.163     -109462.74    
    225000   225000         0.28585461     0.26022081     340.66972      273.85003      66.819691      60.827683      298.28822      329.49925     -87050.687     -88052.244      21356.266     -109408.51    
    226000   226000         0.28576309     0.24300319     337.13971      265.58561      71.554096      60.847166      297.95928     -274.37445     -88889.18      -88055.182      21332.715     -109387.9     
    227000   227000         0.28551171     0.356653       319.71988      270.96697      48.752917      60.900739      300.88515      591.57179     -86258.937     -88057.098      21542.196     -109599.29    
    228000   228000         0.28530641     0.23714668     331.9618       258.64063      73.321177      60.944562      298.55575      156.61446     -87579.485     -88055.536      21375.421     -109430.96    
    229000   229000         0.28491527     0.22202551     336.92049      258.60573      78.314758      61.028227      297.87335     -1622.9007     -92985.565     -88052.541      21326.563     -109379.1     
    230000   230000         0.28464911     0.26273212     335.91796      269.73696      66.180999      61.085292      301.78136     -94.712044     -88348.41      -88060.52       21606.362     -109666.88    
    231000   231000         0.28435583     0.22842982     338.05208      261.93297      76.119109      61.148294      299.0639       544.1783      -86398.458     -88052.56       21411.802     -109464.36    
    232000   232000         0.28403621     0.23043755     344.45646      269.00055      75.455906      61.217104      300.34473     -456.0554      -89443.751     -88057.509      21503.504     -109561.01    
    233000   233000         0.28388456     0.22992533     332.69003      257.06602      75.624004      61.249805      298.38818     -637.68788     -89990.106     -88051.768      21363.423     -109415.19    
    234000   234000         0.28381351     0.25980854     338.88059      271.95487      66.925721      61.265139      298.89844     -81.013733     -88302.079     -88055.827      21399.955     -109455.78    
    235000   235000         0.28363229     0.24556142     328.9481       258.13945      70.808655      61.304282      300.54273     -549.55011     -89730.594     -88060.163      21517.681     -109577.84    
    236000   236000         0.28346701     0.18922106     342.72374      250.83188      91.891855      61.340026      297.94119     -113.44696     -88399.218     -88054.381      21331.42      -109385.8     
    237000   237000         0.28321702     0.27070872     325.83408      261.60315      64.230934      61.394171      298.58745     -267.61385     -88869.326     -88055.878      21377.69      -109433.57    
    238000   238000         0.28307095     0.26525416     334.3927       268.84095      65.551749      61.425852      299.82769      371.67678     -86925.134     -88054.895      21466.486     -109521.38    
    239000   239000         0.28282141     0.25389223     330.65976      262.1745       68.485254      61.480048      299.73047      197.552       -87455.759     -88056.245      21459.525     -109515.77    
    240000   240000         0.28259886     0.28200756     329.42358      267.7661       61.657475      61.528466      298.8552      -486.68174     -89532.617     -88053.282      21396.86      -109450.14    
    241000   241000         0.28233171     0.2007968      346.0842       259.48982      86.594377      61.586685      300.15413     -171.35104     -88578.426     -88057.582      21489.858     -109547.44    
    242000   242000         0.28209374     0.2553068      329.27615      261.17035      68.105801      61.638639      298.15739     -161.39008     -88542.37      -88051.803      21346.9       -109398.7     
    243000   243000         0.28199318     0.29174682     333.1283       273.52911      59.59919       61.66062       298.52821      262.44414     -87256.754     -88054.488      21373.448     -109427.94    
    244000   244000         0.28191409     0.28506912     336.66758      275.67228      60.995291      61.677917      298.8267      -5.7539791     -88070.042     -88052.552      21394.819     -109447.37    
    245000   245000         0.28171707     0.30106948     339.09332      281.33963      57.753692      61.721052      299.88532      126.05895     -87673.99      -88057.163      21470.612     -109527.78    
    246000   246000         0.2815981      0.22551865     333.23262      256.13091      77.101712      61.747128      299.81351      547.92206     -86387.191     -88052.673      21465.471     -109518.14    
    247000   247000         0.28134514     0.23221029     333.99621      259.11635      74.879861      61.802645      298.68589     -253.29249     -88829.774     -88059.857      21384.738     -109444.6     
    248000   248000         0.28127707     0.21081248     341.71208      259.2318       82.480288      61.817602      301.06285     -845.50284     -90633.132     -88063.113      21554.919     -109618.03    
    249000   249000         0.2811551      0.25304703     335.89332      267.17932      68.714001      61.844419      298.96047     -38.399424     -88172.119     -88055.398      21404.397     -109459.8     
    250000   250000         0.28103207     0.23192866     338.6421       263.67131      74.970785      61.871493      299.31316      483.757       -86578.694     -88049.139      21429.648     -109478.79    
    251000   251000         0.28106276     0.33381557     332.17898      280.09071      52.088265      61.864739      298.78892      593.13716     -86254.562     -88057.482      21392.115     -109449.6     
    252000   252000         0.28103437     0.2082391      348.89251      265.39294      83.499563      61.870988      299.41197     -193.8364      -88647.262     -88058.07       21436.722     -109494.79    
    253000   253000         0.2809492      0.26343973     339.14747      273.14423      66.003233      61.889745      299.8455      -512.41198     -89614.136     -88056.591      21467.761     -109524.35    
    254000   254000         0.28087305     0.32442149     323.18941      269.59285      53.596554      61.906523      297.72808     -712.34781     -90211.451     -88046.175      21316.163     -109362.34    
    255000   255000         0.28082315     0.27660969     333.5025       270.64181      62.860682      61.917524      298.00282      254.46613     -87278.229     -88051.713      21335.832     -109387.55    
    256000   256000         0.28079299     0.27180661     333.80048      269.82899      63.97149       61.924173      298.92305     -44.197457     -88199.358     -88065.014      21401.717     -109466.73    
    257000   257000         0.28076928     0.26900693     330.94683      266.30956      64.637271      61.929403      298.08592      344.54773     -87005.695     -88052.994      21341.782     -109394.78    
    258000   258000         0.2807635      0.23335538     341.85501      267.34259      74.51242       61.930679      301.67115     -721.21113     -90250.627     -88058.41       21598.471     -109656.88    
    259000   259000         0.28085207     0.261165       327.29282      260.71471      66.578117      61.911148      298.35822     -205.32876     -88675.324     -88051.199      21361.278     -109412.48    
    260000   260000         0.28079098     0.23007366     337.32136      261.74611      75.575249      61.924617      297.64        -67.891963     -88257.078     -88050.711      21309.856     -109360.57    
    261000   261000         0.28078612     0.34023281     329.76643      278.66062      51.105811      61.925689      300.85134      63.850867     -87867.912     -88061.995      21539.776     -109601.77    
    262000   262000         0.28084067     0.23486482     342.58295      268.54941      74.03354       61.913661      297.36139     -326.13242     -89045.293     -88053.969      21289.909     -109343.88    
    263000   263000         0.28086368     0.2364131      338.50275      264.95406      73.548692      61.908588      300.19382      34.597808     -87950.137     -88055.301      21492.7       -109548       
    264000   264000         0.2807992      0.31341833     330.30616      274.828        55.478165      61.922804      299.48784      52.424597     -87899.474     -88058.826      21442.154     -109500.98    
    265000   265000         0.28082574     0.2510382      339.83504      270.57118      69.263858      61.916952      297.50653     -116.48497     -88409.444     -88055.372      21300.3       -109355.67    
    266000   266000         0.28089545     0.49946308     314.07711      279.26397      34.813132      61.901586      298.05145      30.335889     -87962.518     -88054.728      21339.314     -109394.04    
    267000   267000         0.28097393     0.31341084     326.86705      271.38756      55.479491      61.884296      300.43643      123.9963      -87683.465     -88060.369      21510.069     -109570.44    
    268000   268000         0.28099181     0.2901421      332.51374      272.58492      59.928821      61.880358      300.09207      248.31713     -87301.534     -88056.327      21485.415     -109541.74    
    269000   269000         0.28097412     0.26803091     336.65725      271.7846       64.872645      61.884254      299.37216      236.93339     -87338.688     -88058.878      21433.872     -109492.75    
    270000   270000         0.2811834      0.36644231     329.70047      282.24996      47.450508      61.838195      300.2332       708.63051     -85898.621     -88052.598      21495.519     -109548.12    
    271000   271000         0.28135166     0.30974289     326.75081      270.61434      56.136476      61.801212      297.79505      19.998878     -87991.612     -88052.401      21320.958     -109373.36    
    272000   272000         0.28143269     0.45852571     316.8609       278.93964      37.921263      61.783419      300.96217      219.23785     -87392.046     -88058.448      21547.71      -109606.16    
    273000   273000         0.28152601     0.23193542     338.62572      263.65712      74.9686        61.76294       299.59927      481.64353     -86588.116     -88052.136      21450.132     -109502.27    
    274000   274000         0.28151478     0.2639675      329.74568      263.87441      65.871269      61.765404      297.58394     -316.88545     -89014.905     -88051.69       21305.842     -109357.53    
    275000   275000         0.28154378     0.21555098     340.78499      260.11788      80.667107      61.759041      298.82744     -435.66382     -89378.168     -88053.91       21394.872     -109448.78    
    276000   276000         0.28154398     0.25372557     340.06303      271.53279      68.530239      61.758998      300.28212      468.35838     -86632.648     -88056.286      21499.021     -109555.31    
    277000   277000         0.28154433     0.28594682     331.17782      270.36975      60.808069      61.758921      298.42231      68.444897     -87851.628     -88059.675      21365.866     -109425.54    
    278000   278000         0.28158668     0.3114136      322.68279      266.84748      55.835308      61.749633      299.29642     -615.29846     -89924.395     -88054.113      21428.449     -109482.56    
    279000   279000         0.28151571     0.28434651     328.14476      266.99446      61.1503        61.765199      299.49441     -136.20122     -88468.875     -88054.873      21442.625     -109497.5     
    280000   280000         0.28146662     0.25708747     330.41002      262.77594      67.634079      61.775972      299.28346     -946.07814     -90931.34      -88055.609      21427.521     -109483.13    
    281000   281000         0.28140247     0.26521762     327.89373      262.33294      65.560781      61.790054      300.28613      601.3864      -86230.892     -88058.887      21499.308     -109558.2     
    282000   282000         0.28131736     0.24236929     334.94588      263.20464      71.741241      61.808749      297.80007     -61.463644     -88237.341     -88050.514      21321.317     -109371.83    
    283000   283000         0.28125811     0.20711109     346.79271      262.83838      83.954336      61.821769      300.2011      -203.60666     -88675.333     -88056.443      21493.221     -109549.66    
    284000   284000         0.28119732     0.25244263     334.46403      265.58551      68.878518      61.835135      297.62111      677.93252     -85996.5       -88057.167      21308.504     -109365.67    
    285000   285000         0.28109576     0.33617222     330.55928      278.83616      51.723114      61.857476      299.75515      283.29968     -87195.249     -88056.376      21461.293     -109517.67    
    286000   286000         0.28098714     0.2377114      341.87632      268.72933      73.146993      61.881386      300.30267      2.7568314     -88048.223     -88056.603      21500.493     -109557.1     
    287000   287000         0.28086287     0.28314725     323.45417      262.04487      61.409299      61.908766      299.65419     -209.07839     -88693.354     -88057.833      21454.065     -109511.9     
    288000   288000         0.2808781      0.33646476     324.32948      272.65134      51.678143      61.905409      298.68148     -78.103618     -88292.993     -88055.587      21384.422     -109440.01    
    289000   289000         0.28078079     0.25531045     335.31795      267.21312      68.104827      61.926864      300.05728     -931.66517     -90887.809     -88055.888      21482.924     -109538.81    
    290000   290000         0.28069375     0.25508802     334.23926      266.07505      68.164212      61.946068      298.30213     -829.6422      -90578.544     -88056.735      21357.262     -109414       
    291000   291000         0.28069805     0.25109467     337.85683      268.60855      69.248281      61.945119      298.99948     -431.67706     -89366.764     -88054.624      21407.189     -109461.81    
    292000   292000         0.28067638     0.3402177      324.69142      273.58334      51.108082      61.949902      300.04683     -131.25848     -88454.302     -88055.324      21482.176     -109537.5     
    293000   293000         0.28073243     0.31896673     324.3286       269.81547      54.513128      61.937532      298.34149     -354.89503     -89133.206     -88054.455      21360.08      -109414.54    
    294000   294000         0.28067525     0.31398337     333.94303      278.5647       55.378328      61.950151      301.75487     -302.40397     -88980.264     -88061.067      21604.465     -109665.53    
    295000   295000         0.28065141     0.2347705      350.90818      276.8449       74.063281      61.955412      298.24455     -348.02313     -89109.85      -88051.987      21353.14      -109405.13    
    296000   296000         0.28059139     0.25915739     335.75023      268.65635      67.093877      61.968666      298.86555     -278.64327     -88901.395     -88054.421      21397.601     -109452.02    
    297000   297000         0.28051648     0.20737354     350.65591      266.80782      83.848085      61.985214      299.51873      290.61682     -87172.74      -88056.108      21444.366     -109500.47    
    298000   298000         0.2804028      0.27057755     337.9299       273.66783      64.262072      62.010343      299.32736     -196.87984     -88653.423     -88054.98       21430.665     -109485.65    
    299000   299000         0.28032414     0.31201256     327.17604      271.44792      55.728123      62.027743      297.80497     -476.21701     -89503.159     -88055.633      21321.668     -109377.3     
    300000   300000         0.28029064     0.21345833     346.29788      264.83995      81.457931      62.035158      299.75374      662.33951     -86041.27      -88054.54       21461.192     -109515.73    
    301000   301000         0.28017906     0.27331008     329.09237      265.47278      63.619585      62.059863      299.31633      492.71251     -86553.787     -88051.453      21429.875     -109481.33    
    302000   302000         0.28013254     0.18659404     350.64358      257.458        93.185583      62.070169      299.00196      235.05526     -87342.064     -88056.546      21407.367     -109463.91    
    303000   303000         0.28010221     0.21830888     341.46273      261.81469      79.648039      62.076891      298.67994     -170.32159     -88575.355     -88057.64       21384.312     -109441.95    
    304000   304000         0.28002281     0.26277592     344.45918      278.28922      66.169967      62.09449       302.2144      -233.14906     -88764.267     -88055.579      21637.365     -109692.94    
    305000   305000         0.27998174     0.28646474     331.08905      270.39092      60.69813       62.103601      299.29921      447.75223     -86695.341     -88056.344      21428.649     -109484.99    
    306000   306000         0.2799383      0.2505729      339.79692      270.40445      69.392475      62.113237      297.70907      391.06956     -86862.467     -88051.175      21314.802     -109365.98    
    307000   307000         0.27980664     0.24532308     339.70528      268.82783      70.87745       62.142464      300.09362     -294.81322     -88953.256     -88057.131      21485.526     -109542.66    
    308000   308000         0.27981912     0.28446413     335.64393      274.51891      61.125014      62.139691      298.83829      442.63581     -86707.889     -88053.34       21395.649     -109448.99    
    309000   309000         0.27984114     0.28787049     329.13115      268.72943      60.401723      62.134803      296.95637     -410.85814     -89296.308     -88047.45       21260.911     -109308.36    
    310000   310000         0.27977419     0.27041787     332.50608      268.20606      64.300018      62.149672      299.13956     -759.28038     -90361.18      -88053.245      21417.219     -109470.46    
    311000   311000         0.27980273     0.26940686     324.67679      260.13547      64.541319      62.143332      300.77752     -65.024181     -88259.518     -88061.868      21534.49      -109596.36    
    312000   312000         0.27978695     0.25420724     335.09665      266.69626      68.400389      62.146836      298.87614     -27.413336     -88135.358     -88052.031      21398.359     -109450.39    
    313000   313000         0.27983091     0.32222852     320.6752       266.71389      53.961312      62.137074      299.97224      359.29971     -86962.887     -88055.027      21476.836     -109531.86    
    314000   314000         0.27978746     0.21723417     346.39363      266.35156      80.042078      62.146723      299.5517      -282.40908     -88917.971     -88059.551      21446.726     -109506.28    
    315000   315000         0.27968316     0.23971957     341.72533      269.1911       72.534229      62.169899      298.49244     -13.846592     -88098.803     -88056.715      21370.887     -109427.6     
    316000   316000         0.27962509     0.24122545     332.161        260.07957      72.081423      62.182811      297.83635      187.56519     -87485.473     -88055.603      21323.914     -109379.52    
    317000   317000         0.27960968     0.33711674     318.85469      267.27649      51.578198      62.186239      298.79711     -133.33473     -88461.225     -88055.936      21392.701     -109448.64    
    318000   318000         0.2796219      0.4160667      314.28037      272.4893       41.791074      62.183519      301.12524     -469.3287      -89481.514     -88054.927      21559.386     -109614.31    
    319000   319000         0.27961641     0.2611851      331.53789      264.9649       66.572993      62.184742      299.5184      -93.060031     -88339.175     -88056.307      21444.342     -109500.65    
    320000   320000         0.27956016     0.30539912     322.17935      265.24443      56.934918      62.197253      297.82383      395.5517      -86848.302     -88050.635      21323.018     -109373.65    
    321000   321000         0.27951269     0.2757155      335.22958      272.16503      63.06455       62.207815      299.17085     -238.1947      -88777.679     -88053.654      21419.459     -109473.11    
    322000   322000         0.27949214     0.30325339     338.60216      281.26439      57.337772      62.212391      299.17806     -283.82818     -88917.085     -88054.351      21419.975     -109474.33    
    323000   323000         0.27945393     0.35478406     320.76734      271.7576       49.009738      62.220896      299.5562      -534.85987     -89681.513     -88055.735      21447.048     -109502.78    
    324000   324000         0.27947504     0.31079094     333.95635      278.00918      55.947171      62.216197      298.29651      131.4302      -87653.887     -88053.387      21356.86      -109410.25    
    325000   325000         0.27953062     0.33154498     326.24822      273.80322      52.444992      62.203826      299.30245      233.54203     -87342.105     -88051.988      21428.881     -109480.87    
    326000   326000         0.27956771     0.245556       342.0227       271.21248      70.810219      62.195573      299.85024     -58.65164      -88234.765     -88056.485      21468.1       -109524.59    
    327000   327000         0.27953107     0.31876286     323.82634      269.27834      54.547993      62.203726      297.51708      26.258698     -87971.933     -88051.75       21301.056     -109352.81    
    328000   328000         0.27949517     0.26613403     336.55718      271.22215      65.335026      62.211716      300.72822     -33.748732     -88163.147     -88060.563      21530.961     -109591.52    
    329000   329000         0.27943293     0.34674629     320.03688      269.89107      50.145811      62.225573      298.00269     -658.90162     -90056.964     -88054.144      21335.824     -109389.97    
    330000   330000         0.2793823      0.28654715     329.67534      268.99466      60.680674      62.236849      299.87906     -633.39067     -89983.012     -88057.736      21470.164     -109527.9     
    331000   331000         0.27934353     0.24023466     339.43571      267.057        72.378708      62.245486      296.55714     -131.38188     -88452.039     -88052.687      21232.327     -109285.01    
    332000   332000         0.27930337     0.24710973     335.69984      265.33485      70.364991      62.254436      299.96297      182.54574     -87505.985     -88060.857      21476.172     -109537.03    
    333000   333000         0.27918414     0.22928915     345.00697      269.17315      75.833829      62.281024      298.46385      698.19787     -85930.664     -88052.93       21368.841     -109421.77    
    334000   334000         0.2790262      0.25412702     330.46154      262.03956      68.42198       62.316276      300.47393     -279.85561     -88912.784     -88062.125      21512.755     -109574.88    
    335000   335000         0.27892225     0.26701408     331.5442       266.42451      65.119689      62.339502      300.11643     -830.45548     -90578.801     -88054.52       21487.159     -109541.68    
    336000   336000         0.27875016     0.24624428     330.37971      259.76741      70.612296      62.377987      299.59715     -550.46684     -89725.553     -88052.335      21449.981     -109502.32    
    337000   337000         0.2786987      0.25425499     341.11499      272.72745      68.387541      62.389505      298.66834     -54.066195     -88218.277     -88053.935      21383.482     -109437.42    
[...]
    931000   931000         0.26692406     0.2778297      329.8719       267.28725      62.584647      65.14165       298.4814      -162.58304     -88540.736     -88046.543      21370.097     -109416.64    
    932000   932000         0.26689555     0.29585078     328.53299      269.76055      58.772446      65.14861       297.64601     -104.02783     -88368.56      -88052.353      21310.286     -109362.64    
    933000   933000         0.26684554     0.23408285     340.41637      266.13552      74.280853      65.16082       297.23064      653.9176      -86065.673     -88053.343      21280.548     -109333.89    
    934000   934000         0.26681853     0.25442882     342.80529      274.46447      68.34082       65.167416      300.37151     -306.32951     -88983.786     -88052.657      21505.422     -109558.08    
    935000   935000         0.26682378     0.27673612     334.10334      271.27138      62.831965      65.166133      300.62264     -269.32874     -88873.094     -88054.434      21523.402     -109577.84    
    936000   936000         0.26682249     0.24093704     336.61909      264.45138      72.167708      65.166448      298.28607      309.0688      -87112.151     -88051.607      21356.113     -109407.72    
    937000   937000         0.26680286     0.26286186     334.85325      268.70491      66.148334      65.171242      298.62423      161.2813      -87562.421     -88052.657      21380.323     -109432.98    
    938000   938000         0.2668017      0.31290585     333.67765      278.10863      55.569029      65.171526      299.46752     -690.8769      -90158.51      -88058.497      21440.699     -109499.2     
    939000   939000         0.26680389     0.27116677     334.2557       270.13326      64.122435      65.170991      298.57841     -92.473994     -88337.384     -88056.297      21377.042     -109433.34    
    940000   940000         0.26680916     0.27262211     326.10626      262.32613      63.780131      65.169703      301.8748       47.910647     -87914.054     -88059.685      21613.051     -109672.74    
    941000   941000         0.26680091     0.22154723     344.04169      265.55786      78.483827      65.171718      299.76895      19.722107     -87993.338     -88053.286      21462.28      -109515.57    
    942000   942000         0.26678303     0.24502132     341.44523      270.48049      70.964739      65.176088      299.97661     -170.84305     -88574.554     -88055.253      21477.148     -109532.4     
    943000   943000         0.26677987     0.22096772     345.9168       267.22714      78.689658      65.17686       298.11714      251.50821     -87291.243     -88055.736      21344.017     -109399.75    
    944000   944000         0.26678303     0.33328298     328.83927      276.66777      52.171503      65.176086      300.93132      711.68835     -85893.9       -88057.172      21545.502     -109602.67    
    945000   945000         0.26681287     0.31601588     339.76384      284.74169      55.022153      65.168798      299.19512      822.90351     -85551.792     -88053.117      21421.197     -109474.31    
    946000   946000         0.2668369      0.23468523     337.00761      262.91742      74.090192      65.162929      299.45713     -557.19243     -89747.572     -88053.912      21439.956     -109493.87    
    947000   947000         0.2668597      0.26132745     338.56432      272.02759      66.53673       65.157361      300.30122     -260.0772      -88846.916     -88056.377      21500.389     -109556.77    
    948000   948000         0.26688202     0.32449931     318.10697      264.52327      53.583702      65.151914      299.18947      884.51788     -85364.851     -88053.462      21420.792     -109474.25    
    949000   949000         0.26690287     0.29065649     331.49122      271.66846      59.822762      65.146823      299.90411      183.7765      -87500.509     -88059.122      21471.958     -109531.08    
    950000   950000         0.26689323     0.24885771     331.93386      262.06311      69.870748      65.149176      298.7969      -1553.724      -92774.333     -88051.581      21392.686     -109444.27    
    951000   951000         0.26690736     0.31531299     330.5548       275.40999      55.144807      65.145726      300.57853      237.77563     -87336.893     -88059.644      21520.244     -109579.89    
    952000   952000         0.26692433     0.23424296     342.48577      268.25568      74.230083      65.141586      300.07417      259.26652     -87265.037     -88053.112      21484.133     -109537.25    
    953000   953000         0.26691118     0.25223327     331.97938      263.04369      68.935689      65.144794      300.05826     -415.43679     -89316.203     -88053.428      21482.994     -109536.42    
    954000   954000         0.2669151      0.27225904     320.03452      256.16934      63.865186      65.143839      298.35959      300.05685     -87138.179     -88050.242      21361.376     -109411.62    
    955000   955000         0.26694276     0.31850416     328.22161      273.62931      54.592298      65.137087      300.22325     -20.486994     -88115.723     -88053.45       21494.807     -109548.26    
    956000   956000         0.26694919     0.23351616     336.88883      262.42771      74.461116      65.135519      297.75718     -468.07635     -89477.634     -88054.853      21318.246     -109373.1     
    957000   957000         0.26693669     0.24733481     339.58049      269.27953      70.300956      65.138569      299.84598      517.47016     -86481.63      -88054.55       21467.796     -109522.35    
    958000   958000         0.26692274     0.2166388      340.29175      260.0297       80.262048      65.141974      299.81729     -326.72272     -89046.825     -88053.708      21465.742     -109519.45    
    959000   959000         0.26690705     0.35385198     323.25532      274.11649      49.138835      65.145801      300.47212      185.53305     -87490.592     -88054.545      21512.625     -109567.17    
    960000   960000         0.26687337     0.23668129     335.9263       262.46095      73.465352      65.154023      299.20577      236.84699     -87339.15      -88059.078      21421.96      -109481.04    
    961000   961000         0.26683418     0.28224359     329.41117      267.80526      61.605913      65.163594      297.71286      203.39264     -87432.598     -88050.837      21315.072     -109365.91    
    962000   962000         0.26681531     0.2660809      331.2271       265.87902      65.348073      65.168201      298.78341      261.071       -87258.544     -88052.104      21391.72      -109443.82    
    963000   963000         0.26680491     0.2355932      346.62715      272.8225       73.804652      65.170743      302.31974     -68.932722     -88271.139     -88061.609      21644.907     -109706.52    
    964000   964000         0.26678816     0.24651156     336.28708      265.75135      70.535733      65.174834      300.19376      82.727772     -87805.757     -88057.219      21492.695     -109549.91    
    965000   965000         0.26680025     0.36922122     317.03062      269.93725      47.093376      65.17188       299.89632     -1000.8583     -91103.035     -88060.792      21471.4       -109532.19    
    966000   966000         0.26678439     0.29097298     327.82055      268.06286      59.757693      65.175756      299.1167      -185.1748      -88621.187     -88058.323      21415.582     -109473.91    
    967000   967000         0.26678272     0.25003861     328.449        258.90824      69.540757      65.176163      299.66888     -196.26982     -88650.315     -88053.726      21455.116     -109508.84    
    968000   968000         0.26679159     0.23365943     333.73648      259.32102      74.415462      65.173996      299.03388      43.789699     -87918.417     -88051.521      21409.653     -109461.17    
    969000   969000         0.26677524     0.26709347     329.14945      264.04911      65.100334      65.177991      301.01792     -437.43818     -89386.526     -88056.875      21551.702     -109608.58    
    970000   970000         0.26676126     0.25416736     334.29968      265.88856      68.41112       65.181406      300.49156      334.61186     -87038.705     -88055.803      21514.017     -109569.82    
    971000   971000         0.26673362     0.23972499     338.26557      265.73298      72.532589      65.188159      299.8543       936.0695      -85215.089     -88060.397      21468.392     -109528.79    
    972000   972000         0.26673515     0.29492468     324.49994      265.54295      58.956999      65.187786      299.57082     -512.54299     -89612.3       -88054.357      21448.095     -109502.45    
    973000   973000         0.26677157     0.30502178     325.70819      268.70284      57.005352      65.178886      299.24514      375.79109     -86912.351     -88054.619      21424.778     -109479.4     
    974000   974000         0.26680345     0.27496684     332.38274      269.14648      63.236258      65.171098      299.12781     -161.54485     -88539.742     -88048.705      21416.378     -109465.08    
    975000   975000         0.26684434     0.31527674     328.32717      273.17602      55.151148      65.161111      296.93643     -113.38229     -88399.565     -88054.924      21259.484     -109314.41    
    976000   976000         0.26688056     0.29667158     330.49214      271.8823       58.609841      65.152268      298.98705      701.15673     -85920.856     -88052.116      21406.299     -109458.42    
    977000   977000         0.26692247     0.39298528     317.41675      273.17113      44.245611      65.142039      296.51304      988.36871     -85039.359     -88043.638      21229.17      -109272.81    
    978000   978000         0.2669789      0.36696423     331.87278      284.48976      47.383022      65.128269      299.94673     -84.113626     -88315.513     -88059.838      21475.009     -109534.85    
    979000   979000         0.26702137     0.35198804     328.8143       279.41525      49.399047      65.117911      300.18045     -244.93286     -88806.903     -88062.396      21491.743     -109554.14    
    980000   980000         0.26707582     0.30875343     333.6249       277.30852      56.316375      65.104637      298.99433     -37.437825     -88171.607     -88057.809      21406.821     -109464.63    
    981000   981000         0.26711713     0.2873544      341.59999      281.08978      60.510205      65.094567      299.69253     -264.49667     -88857.113     -88053.14       21456.809     -109509.95    
    982000   982000         0.26716231     0.51211902     315.90948      281.95668      33.952798      65.083559      300.82828     -888.05712     -90760.43      -88061.062      21538.125     -109599.19    
    983000   983000         0.26720623     0.26626268     335.98965      270.68619      65.303458      65.072861      298.56005      281.13823     -87195.919     -88050.476      21375.728     -109426.2     
    984000   984000         0.26721919     0.28632219     336.29811      275.56976      60.72835       65.069707      298.60622     -34.539234     -88166.378     -88061.391      21379.034     -109440.43    
    985000   985000         0.26722264     0.35189312     320.81734      271.40496      49.412373      65.068866      301.77353     -231.3443      -88765.803     -88062.601      21605.801     -109668.4     
    986000   986000         0.26724165     0.27008622     340.08278      275.70381      64.378975      65.064236      301.02167     -507.31316     -89602.026     -88059.98       21551.97      -109611.95    
    987000   987000         0.26724606     0.36767672     327.07566      279.78446      47.291202      65.063163      296.43939     -805.17836     -90495.839     -88048.391      21223.897     -109272.29    
    988000   988000         0.26727072     0.29393739     327.07736      267.92233      59.155026      65.057159      298.66824      720.24218     -85861.436     -88050.708      21383.474     -109434.18    
    989000   989000         0.26731528     0.30363905     332.50041      275.23547      57.264946      65.046314      300.41217      221.54898     -87381.619     -88055.047      21508.333     -109563.38    
    990000   990000         0.26733431     0.30687981     339.3096       282.64939      56.660209      65.041686      302.00327     -534.69274     -89686.184     -88060.914      21622.249     -109683.16    
    991000   991000         0.26737156     0.33006923     328.06516      275.38568      52.679475      65.032624      299.9537      -202.063       -88670.277     -88056.08       21475.508     -109531.59    
    992000   992000         0.26741951     0.25372812     341.71278      273.18323      68.529551      65.020962      300.12125     -201.33054     -88666.492     -88054.521      21487.504     -109542.03    
    993000   993000         0.26743717     0.26967261     334.90693      270.42922      64.477715      65.01667       299.42587     -204.09841     -88675.935     -88055.551      21437.717     -109493.27    
    994000   994000         0.26745525     0.35727141     319.58501      270.91648      48.668529      65.012273      299.28455     -461.71212     -89459.845     -88056.41       21427.599     -109484.01    
    995000   995000         0.26747412     0.2938005      325.92137      266.73878      59.182588      65.007686      300.86266     -694.82313     -90174.912     -88062.904      21540.586     -109603.49    
    996000   996000         0.26751735     0.3186412      331.85854      277.28972      54.568819      64.997183      301.67616      288.86565     -87184.374     -88062.42       21598.83      -109661.25    
    997000   997000         0.26754617     0.30983444     330.48112      274.36123      56.119888      64.990182      299.65424      407.13573     -86812.602     -88050.146      21454.068     -109504.21    
    998000   998000         0.26758349     0.30124312     332.54855      274.82815      57.720402      64.981116      298.37624     -688.97989     -90151.198     -88056.952      21362.568     -109419.52    
    999000   999000         0.2676235      0.34337364     322.54095      271.9026       50.638349      64.971401      299.47641      361.61112     -86957.046     -88056.211      21441.336     -109497.55    
   1000000   1000000        0.26766273     0.23920762     339.58454      266.89507      72.689467      64.961879      300.58249     -83.599368     -88303.664     -88049.553      21520.527     -109570.08    
   1001000   1001000        0.26769667     0.4155798      317.20648      275.36644      41.840037      64.953642      299.35257     -201.99605     -88671.693     -88057.699      21432.47      -109490.17    
   1002000   1002000        0.2677272      0.42542166     321.77906      280.90696      40.872094      64.946237      299.85876     -510.35948     -89608.802     -88057.496      21468.711     -109526.21    
   1003000   1003000        0.26775931     0.24610933     334.80183      264.15081      70.651016      64.938447      298.87745      307.75919     -87122.321     -88057.796      21398.453     -109456.25    
   1004000   1004000        0.26777709     0.42268284     319.63311      278.49619      41.136929      64.934135      300.26722     -188.83338     -88630.702     -88056.717      21497.955     -109554.67    
   1005000   1005000        0.26782043     0.33766626     326.10758      274.61332      51.49426       64.923629      300.08197     -340.99402     -89088.852     -88052.355      21484.692     -109537.05    
   1006000   1006000        0.2678502      0.34000206     327.84532      276.70482      51.140497      64.916411      300.30418      826.88108     -85542.844     -88056.26       21500.601     -109556.86    
   1007000   1007000        0.26789843     0.30240015     337.88759      280.38804      57.499555      64.904725      301.57595     -421.25971     -89337.127     -88056.652      21591.655     -109648.31    
   1008000   1008000        0.26791589     0.32942274     331.88114      279.09828      52.782859      64.900495      299.6495       248.92058     -87303.296     -88059.924      21453.729     -109513.65    
   1009000   1009000        0.26793195     0.28556785     334.93247      274.0437       60.888765      64.896605      299.11985     -324.66874     -89040.014     -88053.139      21415.808     -109468.95    
   1010000   1010000        0.26795034     0.33182358     322.84572      270.44476      52.400959      64.892152      298.23907     -342.9829      -89095.639     -88053.096      21352.747     -109405.84    
   1011000   1011000        0.26798744     0.32599558     328.93524      275.59748      53.337759      64.883168      296.9747      -279.05478     -88904.029     -88055.805      21262.223     -109318.03    
   1012000   1012000        0.26800934     0.23648703     336.55784      263.03214      73.525699      64.877866      299.34145     -165.35176     -88559.161     -88056.552      21431.674     -109488.23    
   1013000   1013000        0.26802272     0.26671529     339.67801      274.48537      65.192641      64.874626      297.69871     -294.70506     -88945.911     -88050.115      21314.06      -109364.17    
   1014000   1014000        0.26801759     0.23288475     338.73578      264.07278      74.662999      64.875868      300.64602     -643.43366     -90017.367     -88061.564      21525.076     -109586.64    
   1015000   1015000        0.26803987     0.35868147     319.46528      270.98808      48.477202      64.870475      298.85071     -70.559174     -88268.288     -88053.814      21396.538     -109450.35    
   1016000   1016000        0.26805967     0.31254482     341.24866      285.61544      55.633218      64.865685      299.44043      679.71631     -85990.599     -88056.688      21438.76      -109495.45    
   1017000   1017000        0.26806654     0.3298798      318.94214      266.23241      52.709727      64.864021      298.61362      407.37519     -86813.171     -88051.442      21379.563     -109431.01    
   1018000   1018000        0.26808504     0.28490479     331.34891      270.31844      61.030472      64.859546      297.73228     -268.828       -88869.774     -88052.635      21316.463     -109369.1     
   1019000   1019000        0.2681052      0.26288815     328.27162      262.1299       66.141717      64.854668      299.10375      57.391968     -87881.098     -88055.548      21414.655     -109470.2     
   1020000   1020000        0.26811248     0.27295771     337.06806      273.36634      63.701713      64.852908      299.06503      214.81758     -87398.737     -88051.704      21411.882     -109463.59    
Loop time of 10320.1 on 32 procs for 1000000 steps with 24020 atoms

Performance: 8.372 ns/day, 2.867 hours/ns, 96.898 timesteps/s, 2.327 Matom-step/s
99.3% CPU use with 32 MPI tasks x 1 OpenMP threads

MPI task timing breakdown:
Section |  min time  |  avg time  |  max time  |%varavg| %total
---------------------------------------------------------------
Pair    | 6219.9     | 6864.5     | 7431.8     | 376.6 | 66.52
Bond    | 138.74     | 159.64     | 172.34     |  56.3 |  1.55
Kspace  | 1663.3     | 2221.3     | 2871.3     | 672.2 | 21.52
Neigh   | 417.87     | 421.99     | 424.87     |  11.0 |  4.09
Comm    | 448.84     | 504.58     | 547.8      | 135.7 |  4.89
Output  | 0.09928    | 0.12662    | 0.34325    |  11.6 |  0.00
Modify  | 89.356     | 123.64     | 164.79     | 213.5 |  1.20
Other   |            | 24.4       |            |       |  0.24

Nlocal:        750.625 ave         791 max         696 min
Histogram: 1 0 2 4 3 7 6 5 2 2
Nghost:        11326.4 ave       11430 max       11213 min
Histogram: 2 2 0 8 3 5 4 2 3 3
Neighs:         496986 ave      535047 max      442208 min
Histogram: 1 2 2 1 3 5 9 4 3 2

Total # of neighbors = 15903550
Ave neighs/atom = 662.09617
Ave special neighs/atom = 11.983347
Neighbor list builds = 37361
Dangerous builds = 0
Total wall time: 2:55:25
