units real
atom_style full
boundary p p p

# styles
pair_style lj/charmm/coul/long 8.0 12.0
kspace_style pppm 1e-6
dielectric 1.000000
bond_style harmonic
angle_style harmonic
dihedral_style fourier
improper_style cvff
special_bonds amber
pair_modify mix arithmetic
neighbor 2.0 bin
neigh_modify delay 0 every 1 check yes

# system definition
read_data ../final.data
Reading data file ...
  orthogonal box = (-27.956921 -32.298732 -28.85231) to (27.956921 32.298732 28.85231)
  2 by 4 by 4 MPI processor grid
  reading atoms ...
  24020 atoms
  reading velocities ...
  24020 velocities
  scanning bonds ...
  3 = max bonds/atom
  scanning angles ...
  6 = max angles/atom
  scanning dihedrals ...
  27 = max dihedrals/atom
  reading bonds ...
  24010 bonds
  reading angles ...
  48000 angles
  reading dihedrals ...
  71910 dihedrals
Finding 1-2 1-3 1-4 neighbors ...
  special bond factors lj:    0        0        0.5     
  special bond factors coul:  0        0        0.8333333333333334
     4 = max # of 1-2 neighbors
    12 = max # of 1-3 neighbors
    24 = max # of 1-4 neighbors
    28 = max # of special neighbors
  special bonds CPU = 0.072 seconds
  read_data CPU = 0.441 seconds
# do not reset velocities

# vars
variable tLog equal 1000
variable nEvery equal 10
variable nRepeat equal 100
variable boolDump equal 0
variable tDump equal 1000

variable tPreeq equal 10000
variable tPrerun equal 10000
variable tTCrun equal 1000000

variable diffT_delay equal ${tPreeq}+${tPreeq}
variable diffT_delay equal 10000+${tPreeq}
variable diffT_delay equal 10000+10000
# heatflux of 0.05 give good results over 1 ns
variable heat_flux equal 0.05
variable heat_flux_neg equal -1*v_heat_flux

# defining region
variable hot_lo equal (lz*0)+zlo
variable hot_hi equal (lz*0.05)+zlo
variable cold_lo equal (lz*0.50)+zlo
variable cold_hi equal (lz*0.55)+zlo

print "DEBUG: ${hot_lo} ${hot_hi} ${cold_lo} ${cold_hi}"
DEBUG: -28.8523096260642 -25.9670786634578 0 2.88523096260642

# define heating and cooling block regions
region hot block INF INF INF INF ${hot_lo} ${hot_hi} units box
region hot block INF INF INF INF -28.8523096260642 ${hot_hi} units box
region hot block INF INF INF INF -28.8523096260642 -25.9670786634578 units box
region cold block INF INF INF INF ${cold_lo} ${cold_hi} units box
region cold block INF INF INF INF 0 ${cold_hi} units box
region cold block INF INF INF INF 0 2.88523096260642 units box
compute Thot all temp/region hot
compute Tcold all temp/region cold

# STEP 1 - 1st equilibration (nve)
# 1a - thermo output for md2
thermo_style custom step time temp c_Thot c_Tcold press enthalpy etotal ke pe
thermo_modify colname c_Thot Temp_hot colname c_Tcold Temp_cold
thermo_modify flush yes
thermo ${tLog}
thermo 1000

# 1b - nve equilibration
timestep 1.0
fix md2 all nve
run ${tPreeq}
run 10000
PPPM initialization ...
  using 12-bit tables for long-range coulomb (src/kspace.cpp:342)
  G vector (1/distance) = 0.25883856
  grid = 45 50 45
  stencil order = 5
  estimated absolute RMS force accuracy = 0.0003737492
  estimated relative force accuracy = 1.1255346e-06
  using double precision FFTW3
  3d grid and FFT values/proc = 9918 4500
Generated 3 of 3 mixed pair_coeff terms from arithmetic mixing rule
Neighbor list info ...
  update: every = 1 steps, delay = 0 steps, check = yes
  max neighbors/atom: 2000, page size: 100000
  master list distance cutoff = 14
  ghost atom cutoff = 14
  binsize = 7, bins = 8 10 9
  1 neighbor lists, perpetual/occasional/extra = 1 0 0
  (1) pair lj/charmm/coul/long, perpetual
      attributes: half, newton on
      pair build: half/bin/newton
      stencil: half/bin/3d
      bin: standard
Per MPI rank memory allocation (min/avg/max) = 21.64 | 21.99 | 22.2 Mbytes
   Step          Time           Temp         Temp_hot      Temp_cold        Press         Enthalpy        TotEng         KinEng         PotEng    
         0   0              299.31856      290.67743      297.24622      529.8002      -86442.089     -88052.488      21430.034     -109482.52    
      1000   1000           298.4305       288.23961      305.72416      197.31813     -87453.057     -88052.832      21366.453     -109419.28    
      2000   2000           298.89996      290.95326      306.38667     -303.14149     -88979.205     -88057.766      21400.064     -109457.83    
      3000   3000           301.61727      290.94897      303.10136     -130.11563     -88459.098     -88063.594      21594.613     -109658.21    
      4000   4000           298.25845      296.23027      300.83717      106.7854      -87731.653     -88056.242      21354.134     -109410.38    
      5000   5000           298.84073      300.69666      287.94795     -284.27472     -88911.752     -88047.661      21395.824     -109443.48    
      6000   6000           299.47001      294.43165      296.49741      434.12065     -86743.031     -88062.599      21440.878     -109503.48    
      7000   7000           298.37277      291.36395      298.42323     -35.045455     -88161.82      -88055.295      21362.32      -109417.61    
      8000   8000           298.86132      296.49489      302.24346      249.56809     -87298.095     -88056.691      21397.298     -109453.99    
      9000   9000           298.65159      299.45475      298.51352     -32.826304     -88154.793     -88055.013      21382.282     -109437.3     
     10000   10000          299.44555      302.71863      298.56407      210.20371     -87419.091     -88058.033      21439.126     -109497.16    
Loop time of 103.819 on 32 procs for 10000 steps with 24020 atoms

Performance: 8.322 ns/day, 2.884 hours/ns, 96.321 timesteps/s, 2.314 Matom-step/s
99.3% CPU use with 32 MPI tasks x 1 OpenMP threads

MPI task timing breakdown:
Section |  min time  |  avg time  |  max time  |%varavg| %total
---------------------------------------------------------------
Pair    | 63.045     | 69.504     | 74.87      |  37.4 | 66.95
Bond    | 1.4362     | 1.5917     | 1.6976     |   5.3 |  1.53
Kspace  | 16.941     | 22.436     | 29.052     |  66.6 | 21.61
Neigh   | 4.0719     | 4.1164     | 4.1524     |   1.1 |  3.96
Comm    | 4.7423     | 5.1998     | 5.6522     |  11.1 |  5.01
Output  | 0.00095085 | 0.0015694  | 0.0040531  |   1.4 |  0.00
Modify  | 0.039311   | 0.043022   | 0.04678    |   0.9 |  0.04
Other   |            | 0.9264     |            |       |  0.89

Nlocal:        750.625 ave         797 max         715 min
Histogram: 5 1 3 4 8 3 3 2 1 2
Nghost:          11324 ave       11448 max       11165 min
Histogram: 2 0 2 4 3 7 5 4 2 3
Neighs:         497018 ave      534126 max      462194 min
Histogram: 4 4 1 2 5 2 5 5 1 3

Total # of neighbors = 15904587
Ave neighs/atom = 662.13934
Ave special neighs/atom = 11.983347
Neighbor list builds = 370
Dangerous builds = 0
unfix md2

# STEP 2 - MD for thermal conductivity
# 2a - impose nve
fix md3 all nve

# 2b - impose heat flux
fix hot all ehex 1 ${heat_flux} region hot
fix hot all ehex 1 0.05 region hot
fix cold all ehex 1 ${heat_flux_neg} region cold
fix cold all ehex 1 -0.05 region cold

# 2c - calculate thermal profile
compute ke all ke/atom
variable temp atom c_ke/(1.5*0.001987204)

compute layers all chunk/atom bin/1d z lower 0.05 units reduced
fix bins all ave/chunk ${nEvery} ${nRepeat} ${tLog} layers v_temp file Tprofile_z_ehex.dat
fix bins all ave/chunk 10 ${nRepeat} ${tLog} layers v_temp file Tprofile_z_ehex.dat
fix bins all ave/chunk 10 100 ${tLog} layers v_temp file Tprofile_z_ehex.dat
fix bins all ave/chunk 10 100 1000 layers v_temp file Tprofile_z_ehex.dat

variable tdiff equal c_Thot-c_Tcold
fix ave all ave/time ${nEvery} ${nRepeat} ${tLog} v_tdiff ave running start ${diffT_delay}
fix ave all ave/time 10 ${nRepeat} ${tLog} v_tdiff ave running start ${diffT_delay}
fix ave all ave/time 10 100 ${tLog} v_tdiff ave running start ${diffT_delay}
fix ave all ave/time 10 100 1000 v_tdiff ave running start ${diffT_delay}
fix ave all ave/time 10 100 1000 v_tdiff ave running start 20000

# pre define kappa
variable kappa_inst equal 0
variable kappa equal 0

# 2d - thermo out
# dump dump_tc all custom 1000 dump.tc_x_ehex.lammpstrj id type mol x y z ix iy iz vx vy vz
thermo_style custom step time v_kappa v_kappa_inst c_Thot c_Tcold v_tdiff f_ave temp press enthalpy etotal ke pe
WARNING: New thermo_style command, previous thermo_modify settings will be lost (src/output.cpp:904)
thermo_modify colname v_kappa kappa colname v_kappa_inst kappa_inst colname c_Thot Temp_hot colname c_Tcold Temp_cold colname v_tdiff dTemp_step colname f_ave dTemp
thermo_modify flush yes
thermo ${tLog}
thermo 1000

# 2e - prerun
run ${tPrerun}
run 10000
PPPM initialization ...
  using 12-bit tables for long-range coulomb (src/kspace.cpp:342)
  G vector (1/distance) = 0.25883856
  grid = 45 50 45
  stencil order = 5
  estimated absolute RMS force accuracy = 0.0003737492
  estimated relative force accuracy = 1.1255346e-06
  using double precision FFTW3
  3d grid and FFT values/proc = 9918 4500
Generated 3 of 3 mixed pair_coeff terms from arithmetic mixing rule
Per MPI rank memory allocation (min/avg/max) = 22.14 | 22.56 | 22.7 Mbytes
   Step          Time          kappa        kappa_inst      Temp_hot      Temp_cold      dTemp_step       dTemp           Temp          Press         Enthalpy        TotEng         KinEng         PotEng    
     10000   10000          0              0              303.02981      298.56407      4.4657342      0              299.44555      210.20371     -87419.091     -88058.033      21439.126     -109497.16    
     11000   11000          0              0              309.42266      298.80366      10.618999      0              299.07524      368.55788     -86937.104     -88057.385      21412.614     -109470       
     12000   12000          0              0              299.74601      292.86136      6.8846499      0              297.44852      252.83823     -87286.102     -88054.638      21296.147     -109350.78    
     13000   13000          0              0              317.31761      300.37559      16.942016      0              300.53016     -416.77869     -89329.287     -88062.432      21516.78      -109579.21    
     14000   14000          0              0              307.93934      291.04807      16.891274      0              299.30031     -33.628112     -88159.43      -88057.212      21428.728     -109485.94    
     15000   15000          0              0              315.58103      299.61822      15.962816      0              300.97724      244.16046     -87317.942     -88060.101      21548.789     -109608.89    
     16000   16000          0              0              312.46431      300.90465      11.559658      0              298.50376      435.60756     -86736.062     -88060.15       21371.698     -109431.85    
     17000   17000          0              0              307.16899      294.5087       12.660294      0              298.45798      14.92801      -88016.981     -88062.357      21368.42      -109430.78    
     18000   18000          0              0              312.13801      289.13489      23.003126      0              297.8237       582.34403     -86278.485     -88048.598      21323.008     -109371.61    
     19000   19000          0              0              306.93413      287.22387      19.710262      0              301.14424      642.21547     -86113.061     -88065.161      21560.746     -109625.91    
     20000   20000          0              0              308.54792      290.00484      18.543079      20.097646      299.88215      34.375509     -87950.425     -88054.914      21470.385     -109525.3     
Loop time of 103.662 on 32 procs for 10000 steps with 24020 atoms

Performance: 8.335 ns/day, 2.880 hours/ns, 96.467 timesteps/s, 2.317 Matom-step/s
99.3% CPU use with 32 MPI tasks x 1 OpenMP threads

MPI task timing breakdown:
Section |  min time  |  avg time  |  max time  |%varavg| %total
---------------------------------------------------------------
Pair    | 63.089     | 68.388     | 72.846     |  33.0 | 65.97
Bond    | 1.451      | 1.5937     | 1.6969     |   5.0 |  1.54
Kspace  | 18.249     | 22.723     | 28.027     |  57.9 | 21.92
Neigh   | 4.0931     | 4.1234     | 4.1601     |   1.0 |  3.98
Comm    | 5.2256     | 5.3782     | 5.6259     |   4.2 |  5.19
Output  | 0.0017675  | 0.0019271  | 0.0028402  |   0.4 |  0.00
Modify  | 0.98316    | 1.1838     | 1.3164     |   8.3 |  1.14
Other   |            | 0.2701     |            |       |  0.26

Nlocal:        750.625 ave         797 max         701 min
Histogram: 2 1 1 7 6 1 8 2 1 3
Nghost:        11323.6 ave       11453 max       11182 min
Histogram: 3 1 2 4 7 4 2 2 4 3
Neighs:         496994 ave      539438 max      453786 min
Histogram: 3 1 4 3 3 5 5 5 1 2

Total # of neighbors = 15903807
Ave neighs/atom = 662.10687
Ave special neighs/atom = 11.983347
Neighbor list builds = 369
Dangerous builds = 0

# 2f - calc kappa
variable kappa_inst equal (${heat_flux}/(lx*ly)/2.0)*(lz/2.0)/v_tdiff*69478.5785
variable kappa_inst equal (0.05/(lx*ly)/2.0)*(lz/2.0)/v_tdiff*69478.5785
variable kappa equal (${heat_flux}/(lx*ly)/2.0)*(lz/2.0)/f_ave*69478.5785
variable kappa equal (0.05/(lx*ly)/2.0)*(lz/2.0)/f_ave*69478.5785

# 2g - md run for kappa calculation
# optional traj dump
if "${boolDump} == 1" then     "dump tc_dump all atom ${tDump} dump.tc_z.lammpstrj"
run ${tTCrun}
run 1000000
PPPM initialization ...
  using 12-bit tables for long-range coulomb (src/kspace.cpp:342)
  G vector (1/distance) = 0.25883856
  grid = 45 50 45
  stencil order = 5
  estimated absolute RMS force accuracy = 0.0003737492
  estimated relative force accuracy = 1.1255346e-06
  using double precision FFTW3
  3d grid and FFT values/proc = 9918 4500
Generated 3 of 3 mixed pair_coeff terms from arithmetic mixing rule
Per MPI rank memory allocation (min/avg/max) = 22.39 | 22.81 | 22.95 Mbytes
   Step          Time          kappa        kappa_inst      Temp_hot      Temp_cold      dTemp_step       dTemp           Temp          Press         Enthalpy        TotEng         KinEng         PotEng    
     20000   20000          0.69038529     0.81326107     307.06593      290.00484      17.061089      20.097646      299.88215      34.375434     -87950.425     -88054.914      21470.385     -109525.3     
     21000   21000          0.68263949     0.88350367     309.73981      294.03516      15.704654      20.325691      298.79604     -145.4455      -88497.072     -88054.971      21392.624     -109447.6     
     22000   22000          0.73602511     0.49234338     315.0764       286.89461      28.181793      18.851421      297.66543     -73.944436     -88276.66      -88051.896      21311.677     -109363.57    
     23000   23000          0.71858751     0.43850868     319.71267      288.07106      31.641607      19.308879      299.15463      1233.0281     -84312.992     -88060.946      21418.298     -109479.24    
     24000   24000          0.72748867     0.69547461     312.87919      292.92861      19.950576      19.072626      298.24356     -407.42522     -89294.686     -88056.263      21353.069     -109409.33    
     25000   25000          0.69297541     0.45026571     314.42864      283.61324      30.815402      20.022527      297.14812     -60.20527      -88231.803     -88048.801      21274.64      -109323.44    
     26000   26000          0.67411808     0.73345087     305.9652       287.04762      18.917585      20.582624      297.67535      374.11412     -86917.778     -88054.948      21312.387     -109367.34    
     27000   27000          0.65070194     1.3820763      308.02472      297.98539      10.039329      21.32331       298.27235     -135.52544     -88464.253     -88052.305      21355.13      -109407.44    
     28000   28000          0.63899332     0.46314634     315.0198       285.06141      29.958391      21.714028      299.14155      168.46321     -87546.168     -88058.235      21417.362     -109475.6     
     29000   29000          0.639536       0.63426639     307.25129      285.37544      21.875854      21.695603      298.06478     -342.07861     -89094.489     -88054.695      21340.269     -109394.96    
     30000   30000          0.62149682     0.42628866     310.64501      278.09637      32.548646      22.325326      298.76441      873.00501     -85398.534     -88052.149      21390.36      -109442.51    
     31000   31000          0.60283456     0.35628416     323.21015      284.26619      38.943968      23.016463      301.10676     -628.27891     -89960.712     -88050.974      21558.063     -109609.04    
     32000   32000          0.57908923     0.36102917     304.29738      265.86525      38.432127      23.960244      298.86655      123.74773     -87680.237     -88056.385      21397.673     -109454.06    
     33000   33000          0.56775933     0.46122668     314.93025      284.84717      30.08308       24.438381      299.79091     -160.16098     -88547.251     -88060.42       21463.853     -109524.27    
     34000   34000          0.56065395     0.31762941     329.19952      285.51617      43.683357      24.748098      299.5535       44.043518     -87924.839     -88058.715      21446.856     -109505.57    
     35000   35000          0.54872575     0.37549613     323.94922      286.99779      36.95143       25.286072      297.73801     -45.268376     -88187.982     -88050.383      21316.873     -109367.26    
     36000   36000          0.54010663     0.74758853     307.32985      288.77001      18.559834      25.689592      300.33961      311.36039     -87108.272     -88054.694      21503.138     -109557.83    
     37000   37000          0.53032907     0.48139123     311.75557      282.93261      28.822958      26.163226      298.003        617.51482     -86175.729     -88052.747      21335.845     -109388.59    
     38000   38000          0.52267107     0.31968795     325.17511      281.77304      43.40207       26.54656       296.89496     -742.05864     -90304.998     -88049.411      21256.515     -109305.93    
     39000   39000          0.51291028     0.39757893     320.0519       285.15287      34.89903       27.051747      298.87229      737.52081     -85812.635     -88054.428      21398.083     -109452.51    
     40000   40000          0.50593836     0.48183499     310.01489      281.21848      28.796412      27.424524      298.77422     -131.64299     -88453.239     -88053.092      21391.062     -109444.15    
     41000   41000          0.50282991     0.57819458     305.20188      281.20456      23.997318      27.594061      298.3058       152.38567     -87590.071     -88053.267      21357.525     -109410.79    
     42000   42000          0.50110263     0.43812938     317.11028      285.44128      31.668999      27.689176      301.13372     -299.76319     -88969.115     -88057.945      21559.993     -109617.94    
     43000   43000          0.49741512     0.35271181     321.90998      282.57158      39.338402      27.894446      300.31427      236.73332     -87335.466     -88055.049      21501.324     -109556.37    
     44000   44000          0.49274207     0.36704983     321.54486      283.74313      37.801732      28.15899       298.43934     -229.95095     -88756.763     -88057.796      21367.086     -109424.88    
     45000   45000          0.488094       0.35419086     314.86303      275.6889       39.174131      28.427145      298.50819      438.01329     -86731.157     -88062.557      21372.015     -109434.57    
     46000   46000          0.48450389     0.40423278     313.25403      278.92946      34.324577      28.637787      299.06744     -474.31792     -89497.533     -88055.78       21412.055     -109467.84    
     47000   47000          0.48157167     0.56215796     315.69718      291.0153       24.681887      28.812158      299.73939      359.81688     -86966.963     -88060.674      21460.164     -109520.84    
     48000   48000          0.47775598     0.27698957     333.18411      283.09154      50.092569      29.042272      300.16788     -314.65463     -89015.463     -88059.028      21490.842     -109549.87    
     49000   49000          0.47143986     0.39384433     317.06996      281.84         35.229957      29.431366      298.99073      220.1249      -87384.414     -88053.513      21406.564     -109460.08    
     50000   50000          0.46844078     0.49520631     320.75523      292.73636      28.018866      29.619794      299.10041      244.06297     -87317.408     -88059.27       21414.416     -109473.69    
     51000   51000          0.46380271     0.45301726     327.92948      297.30125      30.628235      29.915994      297.80041      666.94745     -86030.729     -88058.005      21321.341     -109379.35    
     52000   52000          0.46325001     0.37516973     318.82738      281.8438       36.983578      29.951687      298.97359      1064.2057     -84820.747     -88055.542      21405.336     -109460.88    
     53000   53000          0.46033854     0.38277366     320.58792      284.33903      36.248887      30.14112       299.58011      91.494373     -87777.489     -88055.598      21448.761     -109504.36    
     54000   54000          0.4551047      0.43450615     318.4549       286.52182      31.933079      30.487752      297.82196     -214.1692      -88707.026     -88056.03       21322.884     -109378.91    
     55000   55000          0.45018729     0.37347173     319.60322      282.4515       37.151725      30.82077       299.03919     -112.68951     -88394.459     -88051.925      21410.033     -109461.96    
     56000   56000          0.44549386     0.36416145     324.6526       286.55104      38.101559      31.145478      300.70445     -1077.2069     -91338.861     -88064.547      21529.259     -109593.81    
     57000   57000          0.43926576     0.34001652     313.08377      272.27658      40.807191      31.587072      299.01975      377.76044     -86906.714     -88054.967      21408.641     -109463.61    
     58000   58000          0.43236169     0.22482194     338.21813      276.50209      61.716037      32.091463      299.52609     -603.17416     -89891.114     -88057.685      21444.893     -109502.58    
     59000   59000          0.42867286     0.36974218     326.66517      289.1387       37.52647       32.367617      299.75133      531.16276     -86442.369     -88056.909      21461.02      -109517.93    
     60000   60000          0.42550698     0.30800052     328.1262       283.07719      45.049012      32.608441      298.45232      581.08677     -86290.316     -88056.607      21368.015     -109424.62    
     61000   61000          0.42354531     0.32629994     321.67824      279.15565      42.522591      32.759468      298.16331      344.53982     -87007.893     -88055.168      21347.323     -109402.49    
     62000   62000          0.42156752     0.26433925     330.96657      278.47676      52.489817      32.913159      298.3781      -65.683149     -88254.393     -88054.74       21362.701     -109417.44    
     63000   63000          0.4196867      0.42086303     324.9845       292.01624      32.968254      33.060659      300.67698     -465.54933     -89473.526     -88058.426      21527.292     -109585.72    
     64000   64000          0.41832739     0.66492646     304.48778      283.62063      20.867148      33.168087      297.68587     -243.27505     -88786.94      -88047.473      21313.14      -109360.61    
     65000   65000          0.41667535     0.40555235     313.74558      279.53269      34.212893      33.299592      299.49421     -450.57815     -89422.862     -88053.27       21442.61      -109495.88    
     66000   66000          0.41586308     0.41923426     316.7179       283.62156      33.096339      33.364633      299.01966      201.95415     -87439.511     -88053.377      21408.634     -109462.01    
     67000   67000          0.41311686     0.3139289      317.32236      273.12408      44.198285      33.586426      297.99098     -610.96281     -89909.7       -88052.597      21334.985     -109387.58    
     68000   68000          0.411957       0.41870036     322.74314      289.6046       33.138541      33.680989      299.97521     -85.519241     -88319.098     -88059.151      21477.048     -109536.2     
     69000   69000          0.41003438     0.3937519      318.72055      283.48232      35.238228      33.838916      299.469       -560.06801     -89758.019     -88055.617      21440.806     -109496.42    
     70000   70000          0.40798725     0.35473381     314.21232      275.09815      39.114172      34.008707      298.37539     -154.57472     -88521.466     -88051.615      21362.507     -109414.12    
     71000   71000          0.40526209     0.25411115     328.85718      274.25462      54.60256       34.237397      299.42411      694.41307     -85946.693     -88057.454      21437.592     -109495.05    
     72000   72000          0.40307718     0.3957575      313.44407      278.38442      35.059649      34.422984      298.10829     -91.769745     -88331.034     -88052.087      21343.384     -109395.47    
     73000   73000          0.40067977     0.39097424     326.98341      291.49484      35.488576      34.628949      298.60424     -882.64926     -90737.154     -88054.223      21378.892     -109433.12    
     74000   74000          0.39828469     0.27037695     324.98688      273.66919      51.317684      34.837189      298.29908      929.91638     -85223.758     -88050.364      21357.044     -109407.41    
     75000   75000          0.39731463     0.60904416     318.6854       295.9036       22.781795      34.922246      301.68317      1031.4329     -84927.731     -88062.909      21599.332     -109662.24    
     76000   76000          0.39537208     0.40533386     318.01537      283.78404      34.231335      35.093826      297.873        185.72539     -87486.79      -88051.327      21326.538     -109377.87    
     77000   77000          0.39274413     0.24232716     335.77364      278.51584      57.257796      35.328648      299.37865     -797.11446     -90480.868     -88057.932      21434.337     -109492.27    
     78000   78000          0.38922634     0.22152344     336.55998      273.92498      62.634994      35.647945      300.27699     -34.786391     -88160.261     -88054.523      21498.655     -109553.18    
     79000   79000          0.38584766     0.4009131      316.28889      281.68009      34.608795      35.960097      298.88672     -15.289128     -88100.766     -88054.292      21399.117     -109453.41    
     80000   80000          0.383894       0.36838341     319.95057      282.28568      37.664886      36.1431        297.69156      53.607231     -87891.469     -88054.415      21313.548     -109367.96    
     81000   81000          0.38161627     0.32059236     322.08043      278.80079      43.279631      36.358825      297.79713      429.13287     -86751.032     -88055.439      21321.106     -109376.55    
     82000   82000          0.37948573     0.27926011     327.41756      277.73227      49.685289      36.562954      298.18831      65.792703     -87852.633     -88052.618      21349.113     -109401.73    
     83000   83000          0.37765236     0.27528207     318.78075      268.37747      50.403279      36.740453      298.57162      141.59087     -87623.167     -88053.551      21376.556     -109430.11    
     84000   84000          0.37492317     0.2285992      336.1733       275.47703      60.696272      37.0079        299.24128      548.51548     -86387.398     -88054.684      21424.501     -109479.19    
     85000   85000          0.37260306     0.23278904     324.89984      265.29601      59.603834      37.238339      298.46471      6.8735926     -88033.399     -88054.292      21368.902     -109423.19    
     86000   86000          0.36994504     0.32137865     318.84326      275.66952      43.173742      37.505893      300.60554     -216.25507     -88710.605     -88053.269      21522.177     -109575.45    
     87000   87000          0.36730629     0.28487072     328.26034      279.55362      48.706722      37.775337      299.04319      115.93924     -87701.488     -88053.901      21410.319     -109464.22    
     88000   88000          0.36560312     0.25267354     329.13189      274.21867      54.913225      37.951315      297.74502      748.15517     -85776.767     -88050.885      21317.376     -109368.26    
     89000   89000          0.36356479     0.21419768     327.08781      262.31064      64.777168      38.164089      300.21585      90.318187     -87783.314     -88057.848      21494.277     -109552.12    
     90000   90000          0.36091224     0.22372248     328.46816      266.44883      62.019333      38.444578      300.33284     -276.24142     -88900.824     -88061.151      21502.653     -109563.8     
     91000   91000          0.35829817     0.20129205     335.66226      266.73197      68.93029       38.725063      300.18787     -77.587007     -88296.972     -88061.136      21492.274     -109553.41    
     92000   92000          0.35622898     0.2059528      334.6332       267.26282      67.370382      38.950001      298.11251      79.703795     -87803.632     -88045.902      21343.686     -109389.59    
     93000   93000          0.35421052     0.31535586     325.63708      281.63879      43.998292      39.171956      300.03896      147.06751     -87609.865     -88056.896      21481.612     -109538.51    
     94000   94000          0.35222977     0.25642552     326.53962      272.42988      54.109744      39.392239      299.38669     -916.76554     -90836.199     -88049.568      21434.912     -109484.48    
     95000   95000          0.3501665      0.24866445     320.83684      265.03828      55.798563      39.624348      296.86609     -1789.3281     -93492.781     -88053.878      21254.447     -109308.33    
     96000   96000          0.34868309     0.23142756     337.24965      277.29517      59.95448       39.792922      299.76247      407.24911     -86819.152     -88057.04       21461.817     -109518.86    
     97000   97000          0.34735631     0.26485325     332.60446      280.21651      52.387951      39.944918      299.35766      256.41432     -87277.337     -88056.742      21432.834     -109489.58    
     98000   98000          0.34633502     0.25544611     326.82602      272.50882      54.317207      40.062708      298.61754     -159.65617     -88539.511     -88054.214      21379.844     -109434.06    
     99000   99000          0.3450272      0.22813885     331.83843      271.01968      60.818747      40.214566      299.26971     -666.49713     -90083.036     -88057.129      21426.537     -109483.67    
    100000   100000         0.34390647     0.25623655     323.6967       269.54705      54.149648      40.345618      300.53223     -392.96978     -89251.037     -88056.553      21516.928     -109573.48    
    101000   101000         0.342447       0.2217781      331.43028      268.86721      62.56307       40.517566      299.77157      383.29167     -86893.126     -88058.192      21462.468     -109520.66    
    102000   102000         0.3407281      0.2282442      337.35931      276.56863      60.790677      40.721969      300.13195     -113.74883     -88409.784     -88064.029      21488.27      -109552.3     
    103000   103000         0.33965255     0.33110566     318.75896      276.85355      41.905412      40.850919      298.72532     -31.194132     -88147.726     -88052.907      21387.561     -109440.47    
    104000   104000         0.33886419     0.32672009     321.91586      279.44795      42.467909      40.945958      299.03278     -710.6494      -90217.471     -88057.357      21409.574     -109466.93    
    105000   105000         0.33794604     0.20936597     341.93575      275.66366      66.272085      41.057203      299.47108     -739.46566     -90306.97      -88059.265      21440.954     -109500.22    
    106000   106000         0.33718833     0.27974016     331.69015      282.09012      49.600026      41.149464      298.27145      564.96824     -86341.519     -88058.815      21355.065     -109413.88    
    107000   107000         0.33602783     0.46863533     311.59784      281.99035      29.607497      41.291578      299.94597     -67.669153     -88268.094     -88062.405      21474.954     -109537.36    
    108000   108000         0.33447151     0.24364041     331.83942      274.89025      56.94917       41.483709      297.51514      62.664104     -87866.478     -88056.954      21300.917     -109357.87    
    109000   109000         0.33330845     0.21165286     333.00215      267.44614      65.556019      41.628464      300.30487     -378.94059     -89208.304     -88056.463      21500.65      -109557.11    
    110000   110000         0.33259229     0.26787914     329.07479      277.2786       51.796191      41.718102      299.55394     -232.93796     -88769.196     -88061.15       21446.887     -109508.04    
    111000   111000         0.33223372     0.31878732     318.40062      274.87594      43.524689      41.763127      299.07874     -325.7546      -89049.002     -88058.827      21412.865     -109471.69    
    112000   112000         0.33230222     0.35450364     323.1722       284.03263      39.139567      41.754518      298.31184      40.951955     -87931.228     -88055.707      21357.958     -109413.66    
    113000   113000         0.3320325      0.2982984      318.60059      272.08636      46.514226      41.788436      299.36704     -557.92589     -89747         -88051.109      21433.505     -109484.61    
    114000   114000         0.33164486     0.42042226     309.36978      276.36696      33.002817      41.83728       299.58842      100.22308     -87752.323     -88056.964      21449.356     -109506.32    
    115000   115000         0.33115486     0.2994037      326.44322      280.10071      46.34251       41.899186      301.56731      1249.4708     -84267.858     -88065.792      21591.036     -109656.83    
    116000   116000         0.33087808     0.30864155     325.83118      280.87573      44.955448      41.934235      297.93071      504.55208     -86519.34      -88052.993      21330.67      -109383.66    
    117000   117000         0.3308473      0.40597803     321.42985      287.25283      34.177019      41.938136      299.04672     -531.97458     -89672.275     -88055.267      21410.572     -109465.84    
    118000   118000         0.3305596      0.26035925     323.70951      270.4173       53.292208      41.974637      300.31629     -710.44996     -90218.336     -88058.829      21501.468     -109560.3     
    119000   119000         0.3305646      0.27701234     330.49606      280.40761      50.08845       41.974002      302.25712     -149.27848     -88519.402     -88065.65       21640.424     -109706.07    
    120000   120000         0.33029468     0.32088274     322.8087       279.56823      43.240466      42.008303      300.26589      72.828588     -87838.192     -88059.565      21497.86      -109557.42    
    121000   121000         0.32986411     0.40549664     323.56419      289.34659      34.217593      42.063136      300.56907     -123.99099     -88433.235     -88056.348      21519.566     -109575.91    
    122000   122000         0.32970074     0.22255085     336.79754      274.4517       62.345837      42.08398       299.3198       246.92152     -87301.283     -88051.834      21430.123     -109481.96    
    123000   123000         0.32901999     0.34602968     321.94036      281.84229      40.098061      42.171052      299.38524      177.10811     -87517.947     -88056.291      21434.809     -109491.1     
    124000   124000         0.32854456     0.32932852     329.7664       287.63485      42.131544      42.232077      299.10919      251.89612     -87288.609     -88054.281      21415.044     -109469.33    
    125000   125000         0.32860912     0.30312677     318.87561      273.10228      45.773321      42.223779      299.84855      205.846       -87432.794     -88058.491      21467.98      -109526.47    
    126000   126000         0.32795133     0.35222006     317.62787      278.23454      39.393324      42.308471      298.41632      381.64166     -86891.419     -88051.47       21365.438     -109416.91    
    127000   127000         0.32775178     0.2423701      330.98724      273.73958      57.247651      42.334229      297.34196     -44.993171     -88188.45      -88051.687      21288.518     -109340.2     
    128000   128000         0.32719624     0.33702829     329.30158      288.13258      41.169005      42.406108      299.30905     -417.70755     -89322.906     -88053.228      21429.354     -109482.58    
    129000   129000         0.32668306     0.24882357     316.90029      261.13741      55.762881      42.472723      297.85131      129.82431     -87656.142     -88050.76       21324.985     -109375.74    
    130000   130000         0.32650611     0.29344923     324.33397      277.05111      47.28286       42.495741      300.0139      -412.94802     -89310.906     -88055.695      21479.819     -109535.51    
    131000   131000         0.3263613      0.34244004     324.68648      284.16808      40.51839       42.514597      299.72983     -677.41074     -90115.627     -88056.546      21459.48      -109516.03    
    132000   132000         0.32651289     0.32767142     314.42371      272.0791       42.344611      42.494858      299.06139      381.00509     -86896.085     -88054.201      21411.622     -109465.82    
    133000   133000         0.32648491     0.34335061     319.08011      278.66918      40.410935      42.4985        299.64134     -428.64026     -89365.904     -88062.995      21453.145     -109516.14    
    134000   134000         0.32662732     0.45879231     314.49955      284.25685      30.242702      42.479972      300.54307     -149.41449     -88513.798     -88059.632      21517.705     -109577.34    
    135000   135000         0.32697011     0.21474962     333.38033      268.76965      64.61068       42.435435      299.05941     -322.60515     -89036.506     -88055.904      21411.48      -109467.38    
    136000   136000         0.32671971     0.35854278     319.49172      280.79307      38.698643      42.467958      297.74543      1015.4359     -84961.779     -88048.332      21317.404     -109365.74    
    137000   137000         0.32647991     0.32486989     323.33124      280.62147      42.709772      42.499151      300.24616      77.631341     -87821.714     -88057.685      21496.447     -109554.13    
    138000   138000         0.32644088     0.32948794     316.2739       274.16274      42.111159      42.504232      300.02512      4.8923356     -88043.928     -88058.799      21480.621     -109539.42    
    139000   139000         0.32676447     0.26684599     333.59001      281.59327      51.996732      42.462141      298.39565      382.26574     -86890.383     -88052.331      21363.957     -109416.29    
    140000   140000         0.32656167     0.24676606     339.74225      283.51443      56.227827      42.488511      298.31897     -390.97431     -89244.977     -88056.558      21358.468     -109415.03    
    141000   141000         0.32646233     0.24093314     333.51285      275.92377      57.589085      42.501439      298.11869     -152.532       -88517.419     -88053.778      21344.129     -109397.91    
    142000   142000         0.32653761     0.43963415     314.56585      283.00524      31.560604      42.491641      296.79604     -308.60647     -88993.017     -88054.966      21249.432     -109304.4     
    143000   143000         0.32645023     0.40793072     313.11452      279.1011       34.01342       42.503015      299.45273     -351.6792      -89124.432     -88055.456      21439.641     -109495.1     
    144000   144000         0.32688656     0.44828564     315.64633      284.69481      30.951514      42.446282      301.64332      714.8893      -85883.819     -88056.82       21596.478     -109653.3     
    145000   145000         0.32723629     0.47467633     317.73814      288.50745      29.230695      42.400918      298.50041     -318.88046     -89023.054     -88053.774      21371.458     -109425.23    
    146000   146000         0.32689262     0.24759877     330.88772      274.84899      56.038723      42.445495      300.01119     -182.65731     -88617.421     -88062.21       21479.624     -109541.83    
    147000   147000         0.32651862     0.37987225     315.25951      278.73376      36.52575       42.494113      298.81531      22.928534     -87986.668     -88056.362      21394.004     -109450.37    
    148000   148000         0.32634024     0.38025323     317.96732      281.47816      36.489155      42.517341      299.14641      850.48923     -85469.942     -88055.118      21417.71      -109472.83    
    149000   149000         0.32642827     0.23538196     322.12494      263.17769      58.947249      42.505874      298.5962       295.5115      -87160.219     -88058.466      21378.316     -109436.78    
    150000   150000         0.32683064     0.39820983     306.92721      272.08348      34.843738      42.453544      298.4611      -683.86895     -90140.609     -88061.898      21368.644     -109430.54    
    151000   151000         0.32704333     0.41002763     329.79785      295.95838      33.839474      42.425936      300.32277      581.01624     -86293.589     -88059.666      21501.932     -109561.6     
    152000   152000         0.32683372     0.38328731     313.42037      277.22007      36.200309      42.453145      299.26445     -233.15455     -88761.933     -88053.229      21426.16      -109479.39    
    153000   153000         0.32653481     0.41673066     312.82423      279.52906      33.295172      42.492005      297.92307     -1025.1426     -91171.741     -88055.683      21330.123     -109385.81    
    154000   154000         0.32641256     0.38170776     307.61601      271.2659       36.35011       42.50792       298.9206       643.83008     -86100.133     -88057.141      21401.542     -109458.68    
    155000   155000         0.32662974     0.32028448     320.44135      277.12012      43.321234      42.479657      298.42959     -35.50318      -88161.549     -88053.632      21366.388     -109420.02    
    156000   156000         0.32651222     0.37054997     326.31295      288.86828      37.444664      42.494946      300.65889      314.8918      -87102.442     -88059.597      21525.997     -109585.59    
    157000   157000         0.32628978     0.43047264     321.6727       289.44041      32.23229       42.523915      299.3039       1062.3409     -84826.451     -88055.579      21428.985     -109484.56    
    158000   158000         0.32635624     0.2551337      334.12365      279.73994      54.383719      42.515256      298.49222     -438.13073     -89384.779     -88053.022      21370.872     -109423.89    
    159000   159000         0.32649069     0.342684       328.53416      288.04462      40.489544      42.497748      298.98774      267.89072     -87240.507     -88054.797      21406.349     -109461.15    
    160000   160000         0.32635396     0.28598281     326.6214       278.10409      48.517318      42.515553      299.93096      348.6684      -86998.849     -88058.673      21473.88      -109532.55    
    161000   161000         0.32595776     0.38125659     318.588        282.19487      36.393126      42.56723       300.18406     -477.72208     -89507.267     -88055.167      21492.001     -109547.17    
    162000   162000         0.32594535     0.34669005     319.23962      279.21794      40.021682      42.568851      298.89241     -35.642949     -88163.165     -88054.823      21399.524     -109454.35    
    163000   163000         0.32564364     0.27588119     322.38212      272.0883       50.29382       42.608291      297.95229      413.66038     -86801.617     -88058.993      21332.215     -109391.21    
    164000   164000         0.32520579     0.2732004      321.48757      270.70024      50.787331      42.665658      300.67173      282.5101      -87199.195     -88057.922      21526.916     -109584.84    
    165000   165000         0.32477229     0.28335619     334.17696      285.2099       48.967058      42.722608      299.35314      431.85412     -86746.752     -88059.43       21432.51      -109491.94    
    166000   166000         0.32441392     0.26854395     320.53977      268.87181      51.667964      42.769802      299.48848      249.19409     -87296.008     -88053.467      21442.2       -109495.67    
    167000   167000         0.32384523     0.23711599     325.44624      266.93007      58.516168      42.844908      298.53247      185.88895     -87483.714     -88048.748      21373.753     -109422.5     
    168000   168000         0.32363348     0.36444526     321.76329      283.69141      38.071887      42.87294       299.9592      -599.15945     -89875.286     -88054.061      21475.902     -109529.96    
    169000   169000         0.32331958     0.37929077     323.85441      287.27266      36.581747      42.914565      299.4008      -406.76244     -89295.584     -88059.175      21435.922     -109495.1     
    170000   170000         0.32332545     0.36541483     316.28124      278.31037      37.97087       42.913786      296.89637      420.2341      -86772.042     -88049.4        21256.615     -109306.02    
    171000   171000         0.32315085     0.42129191     312.86051      279.92582      32.934691      42.936972      298.36533      14.8805       -88008.4       -88053.632      21361.787     -109415.42    
    172000   172000         0.32316336     0.35799103     323.97208      285.2138       38.758287      42.93531       297.84047      784.48051     -85668.016     -88052.55       21324.209     -109376.76    
    173000   173000         0.32316033     0.56866043     312.99224      288.59258      24.399656      42.935713      301.00502     -151.26087     -88520.144     -88060.366      21550.778     -109611.14    
    174000   174000         0.32314443     0.39003706     318.37493      282.80108      35.573848      42.937825      298.89953     -110.08627     -88389.427     -88054.805      21400.034     -109454.84    
    175000   175000         0.32316183     0.29922498     321.37829      275.0081       46.37019       42.935514      298.70626     -25.459866     -88134.776     -88057.388      21386.196     -109443.58    
    176000   176000         0.32317801     0.45996003     318.47014      288.30421      30.165924      42.933364      298.3982       98.965051     -87755.287     -88056.104      21364.14      -109420.24    
    177000   177000         0.32325153     0.3154104      323.16834      279.17765      43.990684      42.923599      297.49691     -736.33726     -90291.046     -88052.85       21299.612     -109352.46    
    178000   178000         0.32309214     0.27035489     329.95199      278.63012      51.321871      42.944774      298.65381      297.77403     -87150.839     -88055.963      21382.441     -109438.4     
    179000   179000         0.32291234     0.31869029     334.31444      290.7765       43.537942      42.968686      298.94569      526.94942     -86455.489     -88057.223      21403.338     -109460.56    
    180000   180000         0.32305603     0.42162087     313.07638      280.16738      32.908995      42.949574      298.96711     -545.16143     -89708.328     -88051.237      21404.872     -109456.11    
    181000   181000         0.32325169     0.36446255     312.10679      274.03671      38.070081      42.923578      295.83234     -111.5571      -88385.163     -88046.07       21180.435     -109226.51    
    182000   182000         0.32356741     0.37036136     318.24883      280.7851       37.463733      42.881695      300.90041      467.50937     -86634.657     -88055.714      21543.289     -109599       
    183000   183000         0.32384324     0.52054842     306.96031      280.3055       26.65481       42.845171      297.88615      332.20398     -87039.586     -88049.364      21327.48      -109376.84    
    184000   184000         0.32400963     0.36587968     316.31731      278.39468      37.922628      42.823169      300.83854      332.57652     -87052.528     -88063.439      21538.859     -109602.3     
    185000   185000         0.32418358     0.46981382     322.70111      293.16788      29.533229      42.80019       298.16484      98.569818     -87754.527     -88054.143      21347.432     -109401.58    
    186000   186000         0.32424043     0.34895973     329.06306      289.30169      39.761376      42.792687      301.33951      1291.7637     -84131.262     -88057.751      21574.726     -109632.48    
    187000   187000         0.32429755     0.41609978     313.3845       280.03885      33.345654      42.78515       300.63965      152.46608     -87601.406     -88064.847      21524.619     -109589.47    
    188000   188000         0.32432901     0.34731272     314.89664      274.94671      39.94993       42.780999      298.13616      695.86895     -85939.699     -88054.885      21345.379     -109400.26    
    189000   189000         0.32464369     0.41699825     313.14572      279.87191      33.273806      42.739531      298.67443     -79.537661     -88291.669     -88049.903      21383.917     -109433.82    
    190000   190000         0.3248081      0.21820717     330.19505      266.60814      63.586906      42.717897      298.40524     -585.4278      -89835.553     -88056.067      21364.644     -109420.71    
    191000   191000         0.32486162     0.37332277     307.84324      270.67669      37.16655       42.71086       299.79937     -782.16515     -90443.054     -88065.558      21464.458     -109530.02    
    192000   192000         0.32488969     0.2839799      317.31655      268.45704      48.85951       42.707169      299.10518     -300.4278      -88967.252     -88054.062      21414.758     -109468.82    
    193000   193000         0.32497944     0.26674989     319.63683      267.62137      52.015462      42.695375      299.79672      41.353062     -87929.736     -88055.434      21464.269     -109519.7     
    194000   194000         0.32510639     0.35915226     315.02458      276.39161      38.632972      42.678703      299.95205      614.43328     -86189.118     -88056.77       21475.39      -109532.16    
    195000   195000         0.32473643     0.27009849     330.34139      278.9708       51.370591      42.727326      298.4113       796.71812     -85636.764     -88058.495      21365.078     -109423.57    
    196000   196000         0.32426342     0.2195214      334.09947      270.89325      63.206225      42.789653      300.20423      555.23369     -86372.644     -88060.351      21493.445     -109553.8     
    197000   197000         0.32392247     0.2896523      332.75928      284.8566       47.902672      42.834692      303.20984      320.75434     -87084.4       -88059.376      21708.635     -109768.01    
    198000   198000         0.32368225     0.29813944     325.39685      278.85783      46.539025      42.866482      300.46685     -9.0149844     -88079.158     -88051.756      21512.248     -109564       
    199000   199000         0.32357863     0.42284699     309.09944      276.28587      32.81357       42.880209      297.64243     -27.938472     -88137.079     -88052.157      21310.03      -109362.19    
    200000   200000         0.32343491     0.3011119      324.13745      278.05784      46.079611      42.899263      297.99107     -72.741141     -88274.946     -88053.839      21334.992     -109388.83    
    201000   201000         0.32313246     0.36336302     316.13298      277.9477       38.185281      42.939416      298.69797      306.22217     -87125.359     -88056.162      21385.603     -109441.76    
    202000   202000         0.32331069     0.43684872     315.52417      283.76233      31.761839      42.915745      300.90428     -19.308601     -88118.58      -88059.889      21543.566     -109603.46    
    203000   203000         0.32314053     0.34275659     320.92177      280.4408       40.480969      42.938344      300.26375      381.85723     -86895.699     -88056.405      21497.707     -109554.11    
    204000   204000         0.32294072     0.38818658     315.84172      280.09829      35.743428      42.96491       300.11164      625.86286     -86154.446     -88056.84       21486.816     -109543.66    
    205000   205000         0.32291222     0.27328571     328.10821      277.33673      50.771476      42.968702      300.12337      759.95623     -85748.417     -88058.406      21487.656     -109546.06    
    206000   206000         0.32267484     0.22996234     337.81395      277.47747      60.336485      43.000312      299.40733      298.46822     -87147.839     -88055.073      21436.39      -109491.46    
    207000   207000         0.32246632     0.27979161     334.5372       284.94629      49.590904      43.028119      300.31917     -189.36171     -88633.111     -88057.521      21501.674     -109559.2     
    208000   208000         0.32253867     0.27253546     328.43137      277.52013      50.911243      43.018467      299.31552     -108.47646     -88382.3       -88052.571      21429.817     -109482.39    
    209000   209000         0.32249103     0.24386342     322.90886      266.01177      56.89709       43.024822      297.8689      -155.47374     -88519.923     -88047.34       21326.244     -109373.58    
    210000   210000         0.32202484     0.25229249     331.47651      276.48035      54.996163      43.087108      300.7677       379.77278     -86905.519     -88059.889      21533.788     -109593.68    
    211000   211000         0.32166735     0.2282993      328.22557      267.44956      60.776004      43.134993      299.63318      167.98735     -87549.997     -88060.617      21452.56      -109513.18    
    212000   212000         0.32136829     0.37859957     314.72394      278.0754       36.648534      43.175135      298.61189     -25.259249     -88133.377     -88056.598      21379.44      -109436.04    
    213000   213000         0.32101227     0.22804823     329.46348      268.62057      60.842915      43.223018      298.77271     -365.28476     -89175.373     -88065.041      21390.954     -109456       
    214000   214000         0.32071713     0.34829597     317.54267      277.70552      39.83715       43.262794      300.50912     -66.589741     -88259.383     -88056.975      21515.274     -109572.25    
    215000   215000         0.32023729     0.22561508     335.09999      273.60092      61.499075      43.327618      299.9586       445.49726     -86698.571     -88052.72       21475.859     -109528.58    
    216000   216000         0.31986311     0.18975655     337.07435      263.95372      73.120633      43.378303      298.66588     -92.901988     -88336.454     -88054.066      21383.306     -109437.37    
    217000   217000         0.31948325     0.25126142     329.85569      274.63385      55.221844      43.42988       299.62075     -435.38142     -89382.284     -88058.884      21451.67      -109510.55    
    218000   218000         0.31930747     0.30929184     328.15763      283.2967       44.860928      43.453787      298.60467     -316.23838     -89020.531     -88059.282      21378.923     -109438.21    
    219000   219000         0.31910285     0.26221211     328.4219       275.50627      52.91563       43.481652      298.00057      39.248004     -87933.892     -88053.192      21335.672     -109388.86    
    220000   220000         0.31892142     0.29031757     320.61887      272.82597      47.792901      43.506388      299.51805     -76.549972     -88294.452     -88061.768      21444.317     -109506.09    
    221000   221000         0.31857481     0.21377925     334.93747      270.03352      64.903955      43.553723      297.22208     -704.53488     -90190.588     -88049.06       21279.935     -109328.99    
    222000   222000         0.31813379     0.26599972     330.56035      278.39819      52.162157      43.6141        298.90503     -184.32229     -88616.032     -88055.76       21400.427     -109456.19    
    223000   223000         0.31760901     0.20974054     339.45488      273.30115      66.15373       43.686163      298.95414     -242.55432     -88797.279     -88060.002      21403.943     -109463.95    
    224000   224000         0.31722746     0.20486688     339.01918      271.2917       67.727488      43.738707      298.20391     -536.40699     -89685.259     -88054.779      21350.23      -109405.01    
    225000   225000         0.31690789     0.23493392     329.01459      269.95492      59.059667      43.782813      298.35337      143.78221     -87616.098     -88053.143      21360.93      -109414.07    
    226000   226000         0.3167455      0.38050084     317.79052      281.32511      36.46541       43.80526       301.37455      237.87394     -87336.615     -88059.665      21577.236     -109636.9     
    227000   227000         0.31663993     0.25142946     337.28078      282.09585      55.184937      43.819865      299.38848     -359.03054     -89153.982     -88062.661      21435.04      -109497.7     
    228000   228000         0.31647387     0.22376301     339.59728      277.58918      62.008101      43.842858      300.20354      205.87816     -87427.098     -88052.892      21493.396     -109546.29    
    229000   229000         0.31621684     0.23111526     334.4186       274.3831       60.035496      43.878495      298.84938      398.94908     -86843.035     -88055.694      21396.443     -109452.14    
    230000   230000         0.31623878     0.29568958     321.77611      274.85149      46.924612      43.875451      299.09829      534.69903     -86429.282     -88054.571      21414.264     -109468.84    
    231000   231000         0.31601786     0.25696794     329.9713       275.97578      53.995525      43.906123      298.98424     -323.61758     -89046.592     -88062.913      21406.098     -109469.01    
    232000   232000         0.31597167     0.28217685     328.25491      279.0832       49.171713      43.912542      300.50243      472.49298     -86622.754     -88058.959      21514.795     -109573.75    
    233000   233000         0.31591661     0.24317653     330.69884      273.64104      57.057805      43.920195      299.15446     -254.92675     -88829.91      -88055.026      21418.286     -109473.31    
    234000   234000         0.31587175     0.4604034      320.28686      290.14999      30.136874      43.926433      299.6174       1066.8011     -84818.87      -88061.554      21451.43      -109512.98    
    235000   235000         0.31585264     0.22129851     336.5101       273.81144      62.698656      43.92909       300.81572      818.99673     -85565.402     -88054.852      21537.226     -109592.08    
    236000   236000         0.31582511     0.38139047     319.43367      283.05332      36.38035       43.932919      298.88071      613.3029      -86195.136     -88059.352      21398.686     -109458.04    
    237000   237000         0.31560162     0.36350121     316.30221      278.13145      38.170765      43.96403       297.59732      197.12744     -87454.586     -88053.781      21306.801     -109360.58    
    238000   238000         0.31533127     0.28803792     324.14163      275.97048      48.171154      44.001723      299.49705      360.30409     -86960.649     -88055.842      21442.814     -109498.66    
    239000   239000         0.31500842     0.26995363     322.30388      270.90572      51.398156      44.04682       299.93637     -40.11465      -88179.209     -88057.275      21474.268     -109531.54    
    240000   240000         0.31484064     0.29918203     326.60464      280.2278       46.376847      44.070292      299.65341      218.75365     -87392.071     -88057.002      21454.008     -109511.01    
    241000   241000         0.31490739     0.31383001     318.6957       274.48349      44.212213      44.060951      300.2199      -664.87358     -90077.261     -88056.289      21494.567     -109550.86    
    242000   242000         0.31511806     0.47153789     311.61719      282.19194      29.425247      44.031495      300.81939     -161.5051      -88551.353     -88060.436      21537.488     -109597.92    
    243000   243000         0.31531887     0.3167974      323.86343      280.06534      43.798084      44.003453      300.19306     -401.89307     -89281.384     -88059.777      21492.646     -109552.42    
    244000   244000         0.31542777     0.39224429     308.21355      272.83989      35.373667      43.988261      296.59825     -295.20449     -88950.11      -88052.796      21235.271     -109288.07    
    245000   245000         0.31542161     0.36653139     311.03659      273.18139      37.8552        43.98912       298.34195      96.690859     -87760.744     -88054.649      21360.113     -109414.76    
    246000   246000         0.31520878     0.2844974      318.21631      269.44567      48.770635      44.018822      298.19254     -215.01254     -88706.886     -88053.326      21349.416     -109402.74    
    247000   247000         0.31503753     0.31776022     322.2681       278.60273      43.665375      44.042749      299.06734      11.57096      -88019.146     -88054.318      21412.048     -109466.37    
    248000   248000         0.31483431     0.20380116     336.00105      267.9194       68.081649      44.071178      299.3103       502.84677     -86531.83      -88060.3        21429.443     -109489.74    
    249000   249000         0.31460025     0.42781939     312.30216      279.86997      32.432188      44.103968      300.05544     -51.806463     -88216.943     -88059.47       21482.792     -109542.26    
    250000   250000         0.31448385     0.28143685     326.93423      277.63322      49.301004      44.120291      298.90158     -236.69215     -88774.395     -88054.937      21400.18      -109455.12    
    251000   251000         0.31434251     0.21509575     330.37943      265.87272      64.506709      44.14013       298.89647      255.43638     -87276.643     -88053.076      21399.814     -109452.89    
    252000   252000         0.31410144     0.25508034     340.83878      286.44368      54.395095      44.174006      299.08933     -546.20684     -89711.434     -88051.165      21413.623     -109464.79    
    253000   253000         0.31389454     0.27386973     330.1211       279.45789      50.663207      44.203124      298.40153     -318.11252     -89023.675     -88056.729      21364.379     -109421.11    
    254000   254000         0.31385443     0.33053793     327.31934      285.34195      41.977389      44.208772      300.10642      761.12936     -85747.229     -88060.783      21486.442     -109547.23    
    255000   255000         0.31378846     0.22733601     336.95425      275.92072      61.033529      44.218067      298.78752      85.029277     -87800.245     -88058.703      21392.014     -109450.72    
    256000   256000         0.31382394     0.30795027     327.74996      282.6936       45.056363      44.213068      298.56632     -324.71528     -89042.338     -88055.322      21376.177     -109431.5     
    257000   257000         0.31376966     0.21114576     342.54586      276.83239      65.713464      44.220715      299.97187     -647.43027     -90019.307     -88051.356      21476.809     -109528.17    
    258000   258000         0.31353502     0.3170391      323.55516      279.79047      43.764694      44.25381       299.04066      111.63955     -87723.93      -88063.273      21410.138     -109473.41    
    259000   259000         0.31345346     0.18937062     349.37481      276.10517      73.269648      44.265325      298.66497     -621.97244     -89946.062     -88055.494      21383.24      -109438.73    
    260000   260000         0.31325461     0.28239827     327.79206      278.6589       49.133159      44.293423      297.83768     -310.32021     -89001.844     -88058.585      21324.01      -109382.59    
    261000   261000         0.31307071     0.41170997     316.82082      283.11962      33.701198      44.319442      300.41729      40.619659     -87931.137     -88054.606      21508.699     -109563.31    
    262000   262000         0.31286823     0.26599232     318.80113      266.63753      52.163607      44.348125      298.71942     -2.2270929     -88058.762     -88051.993      21387.138     -109439.13    
    263000   263000         0.3126242      0.35469371     315.60467      276.48608      39.118594      44.382742      297.40988      298.11459     -87144.286     -88050.445      21293.38      -109343.82    
    264000   264000         0.31243744     0.25874317     332.90884      279.28377      53.625064      44.409272      298.31848     -411.50149     -89302.035     -88051.221      21358.433     -109409.65    
    265000   265000         0.31228815     0.2943084      324.85606      277.71123      47.144829      44.430501      301.8633       538.51702     -86421.384     -88058.279      21612.228     -109670.51    
    266000   266000         0.31220846     0.39159925     311.83925      276.40732      35.431935      44.441842      298.06937      303.28829     -87130.253     -88052.138      21340.597     -109392.74    
    267000   267000         0.31221596     0.26231645     329.89694      277.00236      52.894583      44.440774      299.77273      63.37439      -87860.812     -88053.447      21462.551     -109516       
    268000   268000         0.31211877     0.3931077      318.92359      283.62761      35.295974      44.454612      299.41772      124.71761     -87676.403     -88055.499      21437.134     -109492.63    
    269000   269000         0.31214042     0.26162785     336.42562      283.39182      53.033801      44.45153       300.168        494.96275     -86554.481     -88058.986      21490.851     -109549.84    
    270000   270000         0.31218218     0.30243001     312.33805      266.45927      45.878777      44.445583      298.89304     -957.65203     -90964.194     -88053.283      21399.569     -109452.85    
    271000   271000         0.31225251     0.25501101     323.35116      268.94128      54.409882      44.435573      297.74965      2.8273395     -88045.585     -88054.179      21317.707     -109371.89    
    272000   272000         0.312175       0.37049495     319.6662       282.21598      37.450225      44.446606      297.86922     -265.65786     -88858.248     -88050.746      21326.267     -109377.01    
    273000   273000         0.31225161     0.2990078      325.37636      278.97249      46.40387       44.4357        299.39771     -244.6732      -88803.082     -88059.365      21435.701     -109495.07    
    274000   274000         0.31212918     0.20437739     336.41739      268.52769      67.889698      44.45313       299.06858      295.33246     -87158.15      -88055.852      21412.137     -109467.99    
    275000   275000         0.31196719     0.30035003     331.12155      284.92505      46.196496      44.476212      299.75377     -83.771132     -88312.211     -88057.577      21461.194     -109518.77    
    276000   276000         0.31164932     0.1970782      338.60948      268.20535      70.404128      44.521577      297.65431      273.06498     -87223.949     -88053.966      21310.881     -109364.85    
    277000   277000         0.31144449     0.29448566     322.35436      275.23791      47.11645       44.550858      300.08537      1010.7817     -84988.979     -88061.386      21484.935     -109546.32    
    278000   278000         0.31139873     0.26593563     326.84323      274.6685       52.174728      44.557404      300.53767      274.49759     -87220.427     -88054.799      21517.318     -109572.12    
    279000   279000         0.31133426     0.26051105     329.01511      275.75396      53.261153      44.56663       298.83871     -193.83206     -88645.129     -88055.951      21395.679     -109451.63    
    280000   280000         0.31123697     0.24907434     321.72941      266.02267      55.706739      44.580562      299.86931      346.03623     -87007.317     -88059.14       21469.466     -109528.61    
    281000   281000         0.31122102     0.39781387     315.76915      280.89073      34.87842       44.582847      299.01255      219.86533     -87389.444     -88057.754      21408.126     -109465.88    
    282000   282000         0.31122575     0.28358763     313.36797      264.44087      48.927096      44.58217       298.33448     -153.4663      -88521.347     -88054.865      21359.578     -109414.44    
    283000   283000         0.31132257     0.43639796     309.86985      278.0752       31.794647      44.568305      298.9189      -289.16343     -88935.455     -88056.505      21401.42      -109457.92    
    284000   284000         0.31130408     0.27645725     332.5844       282.39538      50.189023      44.570952      298.46054     -252.54693     -88823.269     -88055.619      21368.604     -109424.22    
    285000   285000         0.31118269     0.25177491     325.18471      270.07549      55.10922       44.588339      297.49697     -663.10453     -90068.895     -88053.3        21299.616     -109352.92    
    286000   286000         0.31096663     0.23467595     323.30641      264.18182      59.124588      44.619318      297.47204     -705.53787     -90195.412     -88050.835      21297.831     -109348.67    
    287000   287000         0.310883       0.3827094      319.62568      283.3707       36.254973      44.631321      298.96639      289.58281     -87176.258     -88056.483      21404.821     -109461.3     
    288000   288000         0.31080744     0.23383552     328.9723       269.63521      59.337088      44.642172      298.95148     -311.65873     -89004.509     -88057.18       21403.753     -109460.93    
    289000   289000         0.31057397     0.2558277      335.15177      280.91558      54.236187      44.675731      299.54563     -241.60632     -88792.507     -88058.113      21446.292     -109504.4     
    290000   290000         0.31046458     0.23600577     337.51873      278.72729      58.79144       44.691471      299.44888      68.747817     -87843.382     -88052.35       21439.365     -109491.71    
    291000   291000         0.31031835     0.2670606      333.39661      281.44167      51.954946      44.712532      299.42048     -38.155884     -88170.214     -88054.234      21437.331     -109491.57    
    292000   292000         0.30995864     0.2072625      337.35819      270.41352      66.944668      44.764421      299.58903     -227.70366     -88753.768     -88061.632      21449.399     -109511.03    
    293000   293000         0.30965291     0.247336       331.61449      275.51623      56.098258      44.808618      300.07655      457.50568     -86666.674     -88057.324      21484.304     -109541.63    
    294000   294000         0.30939732     0.29887914     333.442        287.01815      46.423845      44.845634      300.42036      192.79227     -87471.175     -88057.193      21508.919     -109566.11    
    295000   295000         0.30918619     0.25484432     334.8773       280.43183      54.445471      44.876258      300.04335     -133.6103      -88463.022     -88056.896      21481.927     -109538.82    
    296000   296000         0.30886213     0.23194933     332.25992      272.44031      59.819614      44.923342      299.34008      445.3992      -86700.789     -88054.639      21431.575     -109486.21    
    297000   297000         0.30865517     0.29442357     323.9806       276.85422      47.126387      44.953464      299.88169     -108.04373     -88385.005     -88056.592      21470.353     -109526.94    
    298000   298000         0.30847591     0.23806433     325.45894      267.17587      58.283066      44.979587      297.94522     -266.67089     -88865.42      -88054.838      21331.709     -109386.55    
    299000   299000         0.30833999     0.39655407     315.05969      280.07047      34.989223      44.999415      299.22311      197.66109     -87454.317     -88055.135      21423.2       -109478.34    
    300000   300000         0.30842351     0.324672       322.26696      279.53115      42.735805      44.987229      299.45473      32.090801     -87960.204     -88057.748      21439.784     -109497.53    
    301000   301000         0.30830782     0.22903277     327.09364      266.51227      60.58137       45.004111      299.20135     -117.33756     -88416.244     -88059.581      21421.643     -109481.22    
    302000   302000         0.30815744     0.22665124     336.55746      275.33953      61.217927      45.026072      298.41803     -186.93908     -88621.378     -88053.151      21365.56      -109418.71    
    303000   303000         0.30788902     0.20847676     346.94587      280.39112      66.554752      45.065326      301.22223      22.984169     -87989.677     -88059.541      21566.33      -109625.87    
    304000   304000         0.30755346     0.29242563     320.7935       273.34514      47.448368      45.114496      299.10639     -503.69266     -89588.558     -88057.517      21414.844     -109472.36    
    305000   305000         0.3073592      0.25730282     336.06153      282.13628      53.92525       45.143009      301.55654      571.16474     -86325.385     -88061.517      21590.265     -109651.78    
    306000   306000         0.3072918      0.27238986     330.06718      279.12873      50.938457      45.15291       298.50055      271.45922     -87228.095     -88053.232      21371.468     -109424.7     
    307000   307000         0.30722295     0.29310846     324.246        276.90817      47.337832      45.163029      299.67024     -30.538181     -88148.166     -88055.342      21455.214     -109510.56    
    308000   308000         0.30709797     0.29773341     317.05474      270.45225      46.602493      45.181409      297.27519     -519.86654     -89633.971     -88053.767      21283.737     -109337.5     
    309000   309000         0.30697079     0.29744023     324.19645      277.54803      46.648428      45.200128      298.91647      165.19715     -87549.142     -88051.281      21401.246     -109452.53    
    310000   310000         0.30688407     0.22926234     335.2714       274.7507       60.520708      45.2129        298.60073     -945.99831     -90930.539     -88055.05       21378.641     -109433.69    
    311000   311000         0.30680093     0.28521433     318.53931      269.89126      48.648043      45.225154      300.34865     -547.74352     -89728.146     -88063.206      21503.785     -109566.99    
    312000   312000         0.30670653     0.40765398     317.55632      283.51981      34.036511      45.239073      299.32569     -43.385318     -88190.701     -88058.826      21430.545     -109489.37    
    313000   313000         0.30644942     0.22392224     327.93183      265.96783      61.964005      45.277029      299.43296     -185.1229      -88618.71      -88056.004      21438.225     -109494.23    
    314000   314000         0.306232       0.25612343     333.60441      279.43084      54.173564      45.309174      300.66536     -1164.7851     -91596.582     -88056.062      21526.46      -109582.52    
    315000   315000         0.30605631     0.24928606     329.43664      273.77721      55.659425      45.335184      297.16195     -975.16794     -91007.397     -88043.243      21275.63      -109318.87    
    316000   316000         0.30594802     0.24657023     332.08593      275.81345      56.272482      45.35123       298.94496      411.12679     -86806.887     -88056.562      21403.286     -109459.85    
    317000   317000         0.30582167     0.20673319     348.22134      281.10527      67.116068      45.369967      300.36404     -467.82072     -89481.493     -88059.49       21504.887     -109564.38    
    318000   318000         0.3057142      0.303118       318.5644       272.78976      45.774646      45.385916      299.75674      314.76224     -87107.178     -88063.94       21461.407     -109525.35    
    319000   319000         0.30557994     0.2983684      325.39441      278.89109      46.503314      45.405857      299.31255      43.318333     -87924.606     -88056.278      21429.604     -109485.88    
    320000   320000         0.30549704     0.42335366     312.5509       279.7766       32.774298      45.418178      298.98868     -114.01744     -88400.611     -88054.04       21406.417     -109460.46    
    321000   321000         0.30550867     0.25728813     323.24212      269.31379      53.928329      45.416449      299.00526      31.892916     -87957.466     -88054.409      21407.603     -109462.01    
    322000   322000         0.3055237      0.25664176     318.15917      264.09502      54.064152      45.414215      299.84084     -36.53193      -88168.29      -88057.246      21467.428     -109524.67    
    323000   323000         0.30546702     0.22026717     330.67051      267.67829      62.992224      45.422642      297.82721     -40.398957     -88169.583     -88046.785      21323.26      -109370.04    
    324000   324000         0.30541915     0.22726114     329.72928      268.67564      61.053637      45.429761      299.60694     -243.81836     -88795.219     -88054.101      21450.682     -109504.78    
    325000   325000         0.30536415     0.35589354     319.33366      280.34695      38.986712      45.437944      300.30568      156.21462     -87583.976     -88058.811      21500.709     -109559.52    
    326000   326000         0.30522969     0.27644415     338.351        288.1596       50.191401      45.45796       299.23044      212.50322     -87415.296     -88061.228      21423.726     -109484.95    
    327000   327000         0.3052302      0.31356736     318.10336      273.85411      44.249245      45.457884      295.64901      386.29217     -86874.064     -88048.25       21167.309     -109215.56    
    328000   328000         0.30519542     0.26560311     329.30494      277.06489      52.240047      45.463064      298.74102     -140.46755     -88480.86      -88053.89       21388.685     -109442.58    
    329000   329000         0.30509973     0.29127698     323.62621      275.99073      47.635481      45.477323      300.3728      -381.48441     -89216.035     -88056.462      21505.514     -109561.98    
    330000   330000         0.30491607     0.22742619     336.14394      275.13461      61.009328      45.504715      299.30736     -74.543592     -88289.182     -88062.597      21429.233     -109491.83    
    331000   331000         0.30483585     0.23873559     325.79798      267.67879      58.11919       45.51669       298.02178      576.58591     -86295.609     -88048.219      21337.19      -109385.41    
    332000   332000         0.30477116     0.23944708     334.66634      276.71985      57.946495      45.526352      296.83403      908.68712     -85286.812     -88048.888      21252.152     -109301.04    
    333000   333000         0.30462756     0.30944901     317.73136      272.89322      44.838143      45.547813      298.07369     -248.64473     -88815.013     -88059.224      21340.907     -109400.13    
    334000   334000         0.30452088     0.23973867     327.20463      269.32862      57.876017      45.563769      299.62704     -646.31798     -90018.019     -88053.449      21452.121     -109505.57    
    335000   335000         0.30436368     0.21905704     334.25818      270.91797      63.34021       45.587302      298.84462     -165.72016     -88556.641     -88052.912      21396.102     -109449.01    
    336000   336000         0.30417941     0.22528607     316.32666      254.73777      61.58889       45.614918      297.59487      210.73067     -87411.373     -88051.917      21306.625     -109358.54    
    337000   337000         0.30393942     0.27752509     325.61108      275.61517      49.995909      45.650937      300.02697     -232.18906     -88764.587     -88058.817      21480.754     -109539.57    
[...]
    931000   931000         0.28736916     0.29124772     335.22079      287.58053      47.640267      48.283258      299.81096     -384.68855     -89229.556     -88060.243      21465.288     -109525.53    
    932000   932000         0.28737175     0.34612472     319.32612      279.23907      40.08705       48.282821      298.53562      251.4831      -87285.924     -88050.341      21373.979     -109424.32    
    933000   933000         0.2873155      0.23492568     330.49001      271.42827      59.061738      48.292274      297.75351      228.54037     -87358.741     -88053.42       21317.983     -109371.4     
    934000   934000         0.28729376     0.38863303     319.19182      283.48945      35.702367      48.295929      299.94312      90.575545     -87778.536     -88053.852      21474.751     -109528.6     
    935000   935000         0.2873023      0.36463505     322.13236      284.08029      38.052071      48.294494      300.39772     -236.8223      -88776.7       -88056.847      21507.298     -109564.14    
    936000   936000         0.28728681     0.26812557     320.49812      268.74953      51.748586      48.297097      298.36697     -211.14863     -88694.008     -88052.194      21361.904     -109414.1     
    937000   937000         0.28728229     0.27371681     322.18199      271.49047      50.691513      48.297857      298.49254      170.83696     -87533.614     -88052.896      21370.895     -109423.79    
    938000   938000         0.28728733     0.43715708     320.81945      289.08001      31.739435      48.29701       299.40084     -289.82056     -88933.191     -88052.242      21435.925     -109488.17    
    939000   939000         0.28725793     0.22502058     335.0057       273.34414      61.661554      48.301953      299.35558      265.05298     -87246.955     -88052.619      21432.685     -109485.3     
    940000   940000         0.28726979     0.23575026     331.26503      272.40987      58.855158      48.29996       299.17069     -232.50518     -88760.823     -88054.092      21419.448     -109473.54    
    941000   941000         0.28728975     0.3267788      318.93704      276.47677      42.460279      48.296604      301.07871     -165.56478     -88563.501     -88060.244      21556.054     -109616.3     
    942000   942000         0.28725788     0.22457431     328.69836      266.91427      61.784088      48.301961      298.1962      -156.98177     -88525.016     -88047.849      21349.678     -109397.53    
    943000   943000         0.28720327     0.21134053     333.47828      267.82538      65.652901      48.311146      300.77807      258.43937     -87270.641     -88056.202      21534.529     -109590.73    
    944000   944000         0.28717616     0.30162478     330.98302      284.98176      46.001257      48.315707      297.84225     -155.49447     -88527.648     -88055.002      21324.336     -109379.34    
    945000   945000         0.28715135     0.32509337     329.59353      286.91312      42.680413      48.319881      300.72606      325.81754     -87063.807     -88054.173      21530.806     -109584.98    
    946000   946000         0.28714957     0.25940565     333.39927      279.91115      53.488115      48.320181      299.14738      28.836444     -87969.804     -88057.456      21417.779     -109475.23    
    947000   947000         0.28712835     0.28236015     328.53594      279.39615      49.139792      48.323752      299.98848      295.42069     -87159.511     -88057.481      21477.998     -109535.48    
    948000   948000         0.28709648     0.2358871      343.42943      284.60841      58.821016      48.329115      298.77061      366.45572     -86941.789     -88055.68       21390.803     -109446.48    
    949000   949000         0.28712773     0.39287143     319.70564      284.38844      35.3172        48.323856      298.11106     -448.62112     -89420.146     -88056.502      21343.583     -109400.09    
    950000   950000         0.28715587     0.47594528     319.26652      290.11376      29.152761      48.31912       297.66762     -258.34961     -88837.542     -88052.254      21311.833     -109364.09    
    951000   951000         0.28716724     0.25487781     323.50934      269.07103      54.438317      48.317207      299.76056      420.69697     -86777.279     -88056.044      21461.68      -109517.72    
    952000   952000         0.28714706     0.47316336     311.79077      282.46661      29.324162      48.320603      299.19788      276.45643     -87219.726     -88060.052      21421.395     -109481.45    
    953000   953000         0.28714773     0.25159637     331.96265      276.81432      55.148328      48.320491      301.14425     -25.991978     -88139.248     -88060.242      21560.747     -109620.99    
    954000   954000         0.28711578     0.23897488     331.85278      273.79178      58.060994      48.325867      298.72619      634.44119     -86133.965     -88062.434      21387.623     -109450.06    
    955000   955000         0.28710771     0.22754324     331.99626      271.01831      60.977945      48.327226      297.28034     -9.6458657     -88082.977     -88053.658      21284.106     -109337.76    
    956000   956000         0.28709479     0.23124846     331.08167      271.08076      60.000914      48.3294        299.97691     -281.74946     -88915.747     -88059.332      21477.17      -109536.5     
    957000   957000         0.28711401     0.26401937     331.07358      278.52017      52.553413      48.326165      300.64517     -368.79719     -89184.606     -88063.597      21525.015     -109588.61    
    958000   958000         0.28711819     0.26338085     334.43379      281.75297      52.680819      48.325461      300.22582     -71.11041      -88272.134     -88055.984      21494.991     -109550.98    
    959000   959000         0.28706105     0.30215488     331.96763      286.04707      45.920552      48.335081      299.53539     -178.93466     -88600.855     -88056.959      21445.558     -109502.52    
    960000   960000         0.28706698     0.31759634     321.62         277.93209      43.687906      48.334082      299.66078      124.68905     -87676.005     -88055.014      21454.536     -109509.55    
    961000   961000         0.28707897     0.2808985      327.67482      278.27933      49.39549       48.332063      300.27341     -202.88366     -88677.197     -88060.505      21498.398     -109558.9     
    962000   962000         0.28708067     0.37199518     317.19702      279.89783      37.29919       48.331778      299.33086      761.05862     -85741.243     -88054.582      21430.915     -109485.5     
    963000   963000         0.28706098     0.38321422     322.90883      286.70161      36.207213      48.335092      298.87774     -153.67865     -88524.593     -88057.467      21398.474     -109455.94    
    964000   964000         0.28703701     0.23840608     332.70548      274.50596      58.199517      48.339129      299.16131      302.32833     -87136.375     -88055.343      21418.776     -109474.12    
    965000   965000         0.28701711     0.24789011     331.83463      275.86176      55.972863      48.34248       299.19201      238.16566     -87334.157     -88058.094      21420.974     -109479.07    
    966000   966000         0.28702084     0.28078643     330.60548      281.19028      49.415205      48.341853      299.09309      196.0054      -87465.657     -88061.442      21413.891     -109475.33    
    967000   967000         0.28703116     0.25730189     323.15482      269.22937      53.925447      48.340114      300.86385      408.53901     -86816.659     -88058.468      21540.671     -109599.14    
    968000   968000         0.28701658     0.27299027     328.42449      277.59806      50.826423      48.342569      300.00555     -672.15278     -90096.82      -88053.722      21479.22      -109532.94    
    969000   969000         0.28703798     0.40270788     320.15226      285.69771      34.45455       48.338966      299.24238      374.9235      -86916.573     -88056.203      21424.581     -109480.78    
    970000   970000         0.28707253     0.30627426     319.7376       274.43468      45.302922      48.333147      300.13211      360.05195     -86968.922     -88063.348      21488.281     -109551.63    
    971000   971000         0.28710573     0.41022494     319.05373      285.23053      33.823197      48.327559      302.15039     -95.047353     -88345.085     -88056.176      21632.783     -109688.96    
    972000   972000         0.28714377     0.22472048     329.29873      267.55483      61.7439        48.321157      300.14675      963.61998     -85127.114     -88056.166      21489.33      -109545.5     
    973000   973000         0.28718102     0.29068269     326.59922      278.86635      47.732871      48.31489       297.97973      329.80525     -87048.506     -88050.993      21334.179     -109385.17    
    974000   974000         0.28722567     0.42566762     322.51526      289.91913      32.596135      48.307378      300.14282     -256.91521     -88834.069     -88053.141      21489.049     -109542.19    
    975000   975000         0.28724792     0.31390809     315.20805      271.00684      44.201215      48.303636      298.96802      89.925757     -87782.657     -88055.998      21404.937     -109460.93    
    976000   976000         0.28728475     0.38352156     317.32144      281.14324      36.178198      48.297443      299.94239     -413.78183     -89314.025     -88056.28       21474.698     -109530.98    
    977000   977000         0.28732632     0.20683551     337.27682      270.19395      67.082868      48.290456      300.51739     -616.27511     -89925.147     -88051.897      21515.866     -109567.76    
    978000   978000         0.28737887     0.27985413     328.40492      278.82509      49.579826      48.281626      301.4278      -136.6362      -88476.939     -88061.615      21581.048     -109642.66    
    979000   979000         0.28745992     0.29977216     326.27273      279.98719      46.285548      48.268012      299.82713      306.61174     -87117.2       -88049.187      21466.446     -109515.63    
    980000   980000         0.28746377     0.38779726     312.56599      276.78667      35.779312      48.267367      298.99345     -834.21402     -90591.187     -88055.482      21406.758     -109462.24    
    981000   981000         0.28749789     0.22573399     334.13915      272.67247      61.46668       48.261637      299.37725     -323.17622     -89040.381     -88058.044      21434.236     -109492.28    
    982000   982000         0.28749779     0.29844328     323.41553      276.92388      46.491646      48.261654      299.25637     -407.65855     -89292.309     -88053.176      21425.582     -109478.76    
    983000   983000         0.28751461     0.2800149      325.99985      276.44849      49.55136       48.258832      299.91278      385.57431     -86885.693     -88057.698      21472.578     -109530.28    
    984000   984000         0.28752744     0.27842317     338.16894      288.33429      49.834642      48.256679      299.64295      138.87793     -87636.36      -88058.498      21453.259     -109511.76    
    985000   985000         0.28753316     0.3347614      331.10491      289.65712      41.447787      48.255718      299.838        768.21396     -85722.944     -88058.033      21467.225     -109525.26    
    986000   986000         0.28755135     0.25457215     333.0317       278.52802      54.503681      48.252666      301.63889      587.39608     -86276.786     -88062.254      21596.161     -109658.42    
    987000   987000         0.2875797      0.51186321     316.64276      289.53568      27.107084      48.247908      300.10498     -609.41975     -89907.735     -88055.322      21486.339     -109541.66    
    988000   988000         0.28756045     0.20559102     340.06831      272.57938      67.488934      48.251138      297.52162     -740.66787     -90302.175     -88050.816      21301.381     -109352.2     
    989000   989000         0.28755452     0.31675493     322.02614      278.22218      43.803956      48.252133      298.82793      1049.7844     -84860.584     -88051.544      21394.907     -109446.45    
    990000   990000         0.28755793     0.3269611      331.55548      289.11888      42.436605      48.251562      300.06309     -274.50515     -88886.936     -88052.541      21483.34      -109535.88    
    991000   991000         0.28754237     0.24443069     339.40646      282.64141      56.765045      48.254171      297.921        1083.0191     -84760.274     -88052.255      21329.975     -109382.23    
    992000   992000         0.28751927     0.20911732     333.88444      267.53355      66.350884      48.258049      300.98302     -817.44552     -90546.066     -88061.331      21549.204     -109610.53    
    993000   993000         0.28745312     0.2209508      328.75441      265.95709      62.797323      48.269155      299.47082      108.0589      -87729.31      -88057.77       21440.936     -109498.71    
    994000   994000         0.28740779     0.21794462     334.16719      270.50369      63.663507      48.276767      300.57537     -334.30429     -89072.224     -88056.061      21520.017     -109576.08    
    995000   995000         0.28733313     0.25917747     331.09134      277.55614      53.535205      48.289311      299.80547     -339.43887     -89094.231     -88062.461      21464.896     -109527.36    
    996000   996000         0.28732028     0.29313531     319.33507      272.00158      47.333496      48.291471      298.23149      123.68626     -87674.791     -88050.752      21352.205     -109402.96    
    997000   997000         0.28730413     0.51816298     307.20824      280.43072      26.777519      48.294186      300.99924     -1111.3092     -91441.097     -88063.124      21550.365     -109613.49    
    998000   998000         0.28728542     0.20663924     334.50571      267.35913      67.146582      48.29733       298.51848     -298.60095     -88963.484     -88055.846      21372.752     -109428.6     
    999000   999000         0.2872392      0.21885866     334.47635      271.07873      63.397625      48.305103      299.43323     -31.820713     -88149.334     -88052.611      21438.244     -109490.86    
   1000000   1000000        0.28721073     0.34977316     314.20401      274.53511      39.668907      48.309891      301.29434      116.75655     -87698.076     -88052.973      21571.492     -109624.47    
   1001000   1001000        0.28721387     0.22351012     338.71715      276.63889      62.07826       48.309362      300.33146     -108.82264     -88389.11      -88058.33       21502.554     -109560.88    
   1002000   1002000        0.28720554     0.2724527      321.86748      270.94077      50.926708      48.310764      296.9613      -162.61911     -88546.161     -88051.858      21261.264     -109313.12    
   1003000   1003000        0.28720415     0.29133148     323.20352      275.57695      47.626569      48.310998      300.12695     -202.05436     -88669.179     -88055.008      21487.912     -109542.92    
   1004000   1004000        0.28722455     0.2611416      332.05237      278.91982      53.132551      48.307566      300.60198      586.89988     -86275.418     -88059.378      21521.922     -109581.3     
   1005000   1005000        0.28723165     0.23310851     331.51566      271.99351      59.522146      48.306372      298.69022      199.22298     -87448.457     -88054.022      21385.048     -109439.07    
   1006000   1006000        0.28725433     0.38193675     310.34033      274.01201      36.328316      48.302559      298.57747     -206.44251     -88679.911     -88052.401      21376.975     -109429.38    
   1007000   1007000        0.28724893     0.2823764      331.11891      281.98195      49.136964      48.303466      297.2503       9.1175272     -88024.688     -88052.402      21281.955     -109334.36    
   1008000   1008000        0.28721607     0.24472769     331.89101      275.19485      56.696154      48.308993      299.50314     -756.92845     -90353.85      -88053.065      21443.25      -109496.31    
   1009000   1009000        0.28721189     0.33685902     320.06738      278.87769      41.189691      48.309697      298.73633      146.87104     -87606.377     -88052.811      21388.349     -109441.16    
   1010000   1010000        0.28716371     0.23489555     336.10164      277.03232      59.069314      48.317801      300.5543       278.97037     -87209.29      -88057.258      21518.509     -109575.77    
   1011000   1011000        0.28713043     0.35658457     318.10823      279.19707      38.911159      48.323402      298.17936      755.16974     -85755.256     -88050.696      21348.472     -109399.17    
   1012000   1012000        0.2871145      0.28231468     333.52379      284.37608      49.147707      48.326083      299.39905      25.494687     -87977.095     -88054.589      21435.797     -109490.39    
   1013000   1013000        0.28709931     0.26399089     329.70151      277.14242      52.559083      48.32864       298.7437      -693.32978     -90162.827     -88055.359      21388.877     -109444.24    
   1014000   1014000        0.28710465     0.37625757     326.6119       289.73525      36.876651      48.32774       300.88111      239.24659     -87331.71      -88058.932      21541.907     -109600.84    
   1015000   1015000        0.28711758     0.29165052     328.99487      281.4204       47.57447       48.325565      300.80713     -129.13196     -88447.483     -88054.969      21536.611     -109591.58    
   1016000   1016000        0.28710723     0.25067857     335.34258      279.99234      55.350241      48.327306      300.36393     -221.21156     -88731.091     -88058.689      21504.879     -109563.57    
   1017000   1017000        0.28709737     0.23263908     334.01791      274.37566      59.642255      48.328967      298.53795      632.3301      -86137.965     -88060.017      21374.146     -109434.16    
   1018000   1018000        0.28709802     0.28903155     329.43793      281.43238      48.005552      48.328857      301.31045      165.18922     -87559.222     -88061.336      21572.646     -109633.98    
   1019000   1019000        0.28707938     0.23051179     334.25524      274.06257      60.192666      48.331995      298.31265     -193.05862     -88640.638     -88053.811      21358.015     -109411.83    
   1020000   1020000        0.28706254     0.21037688     327.25932      261.30569      65.95363       48.334829      299.30791     -210.05025     -88689.082     -88050.606      21429.272     -109479.88    
Loop time of 10304.7 on 32 procs for 1000000 steps with 24020 atoms

Performance: 8.385 ns/day, 2.862 hours/ns, 97.043 timesteps/s, 2.331 Matom-step/s
99.4% CPU use with 32 MPI tasks x 1 OpenMP threads

MPI task timing breakdown:
Section |  min time  |  avg time  |  max time  |%varavg| %total
---------------------------------------------------------------
Pair    | 6328.7     | 6869.2     | 7339.7     | 343.0 | 66.66
Bond    | 143.54     | 159.62     | 170.59     |  50.6 |  1.55
Kspace  | 1734.1     | 2205.3     | 2753.1     | 614.8 | 21.40
Neigh   | 412.97     | 416.4      | 419.75     |  10.8 |  4.04
Comm    | 478.67     | 505.56     | 531.23     |  48.6 |  4.91
Output  | 0.096235   | 0.11934    | 0.3193     |  10.9 |  0.00
Modify  | 109.99     | 122.51     | 132.98     |  60.1 |  1.19
Other   |            | 26.04      |            |       |  0.25

Nlocal:        750.625 ave         785 max         703 min
Histogram: 1 1 2 2 7 3 6 4 2 4
Nghost:        11346.2 ave       11466 max       11231 min
Histogram: 2 1 1 7 6 8 1 1 4 1
Neighs:         496950 ave      535751 max      449534 min
Histogram: 1 1 2 4 3 8 6 3 2 2

Total # of neighbors = 15902400
Ave neighs/atom = 662.04829
Ave special neighs/atom = 11.983347
Neighbor list builds = 37221
Dangerous builds = 0
Total wall time: 2:55:12
