units real
atom_style full
boundary p p p

# styles
pair_style lj/charmm/coul/long 8.0 12.0
kspace_style pppm 1e-6
dielectric 1.000000
bond_style harmonic
angle_style harmonic
dihedral_style fourier
improper_style cvff
special_bonds amber
pair_modify mix arithmetic
neighbor 2.0 bin
neigh_modify delay 0 every 1 check yes

# system definition
read_data ../final.data
Reading data file ...
  orthogonal box = (-33.498877 -36.417644 -30.882204) to (33.498877 36.417644 30.882204)
  4 by 4 by 2 MPI processor grid
  reading atoms ...
  32020 atoms
  reading velocities ...
  32020 velocities
  scanning bonds ...
  3 = max bonds/atom
  scanning angles ...
  6 = max angles/atom
  scanning dihedrals ...
  15 = max dihedrals/atom
  scanning impropers ...
  1 = max impropers/atom
  reading bonds ...
  32010 bonds
  reading angles ...
  60000 angles
  reading dihedrals ...
  79910 dihedrals
  reading impropers ...
  2000 impropers
Finding 1-2 1-3 1-4 neighbors ...
  special bond factors lj:    0        0        0.5     
  special bond factors coul:  0        0        0.8333333333333334
     4 = max # of 1-2 neighbors
     8 = max # of 1-3 neighbors
    17 = max # of 1-4 neighbors
    20 = max # of special neighbors
  special bonds CPU = 0.096 seconds
  read_data CPU = 0.542 seconds
# do not reset velocities

# vars
variable tLog equal 1000
variable nEvery equal 10
variable nRepeat equal 100
variable boolDump equal 0
variable tDump equal 1000

variable tPreeq equal 10000
variable tPrerun equal 10000
variable tTCrun equal 1000000

variable diffT_delay equal ${tPreeq}+${tPreeq}
variable diffT_delay equal 10000+${tPreeq}
variable diffT_delay equal 10000+10000
# heatflux of 0.05 give good results over 1 ns
variable heat_flux equal 0.05
variable heat_flux_neg equal -1*v_heat_flux

# defining region
variable hot_lo equal (lx*0)+xlo
variable hot_hi equal (lx*0.05)+xlo
variable cold_lo equal (lx*0.50)+xlo
variable cold_hi equal (lx*0.55)+xlo

print "DEBUG: ${hot_lo} ${hot_hi} ${cold_lo} ${cold_hi}"
DEBUG: -33.4988771667993 -30.1489894501194 0 3.34988771667993

# define heating and cooling block regions
region hot block ${hot_lo} ${hot_hi} INF INF INF INF units box
region hot block -33.4988771667993 ${hot_hi} INF INF INF INF units box
region hot block -33.4988771667993 -30.1489894501194 INF INF INF INF units box
region cold block ${cold_lo} ${cold_hi} INF INF INF INF units box
region cold block 0 ${cold_hi} INF INF INF INF units box
region cold block 0 3.34988771667993 INF INF INF INF units box
compute Thot all temp/region hot
compute Tcold all temp/region cold

# STEP 1 - 1st equilibration (nve)
# 1a - thermo output for md2
thermo_style custom step time temp c_Thot c_Tcold press enthalpy etotal ke pe
thermo_modify colname c_Thot Temp_hot colname c_Tcold Temp_cold
thermo_modify flush yes
thermo ${tLog}
thermo 1000

# 1b - nve equilibration
timestep 1.0
fix md2 all nve
run ${tPreeq}
run 10000
PPPM initialization ...
  using 12-bit tables for long-range coulomb (src/kspace.cpp:342)
  G vector (1/distance) = 0.25627571
  grid = 50 54 48
  stencil order = 5
  estimated absolute RMS force accuracy = 0.0003553538
  estimated relative force accuracy = 1.0701374e-06
  using double precision FFTW3
  3d grid and FFT values/proc = 11780 5400
Generated 21 of 21 mixed pair_coeff terms from arithmetic mixing rule
Neighbor list info ...
  update: every = 1 steps, delay = 0 steps, check = yes
  max neighbors/atom: 2000, page size: 100000
  master list distance cutoff = 14
  ghost atom cutoff = 14
  binsize = 7, bins = 10 11 9
  1 neighbor lists, perpetual/occasional/extra = 1 0 0
  (1) pair lj/charmm/coul/long, perpetual
      attributes: half, newton on
      pair build: half/bin/newton
      stencil: half/bin/3d
      bin: standard
Per MPI rank memory allocation (min/avg/max) = 18.05 | 18.48 | 18.65 Mbytes
   Step          Time           Temp         Temp_hot      Temp_cold        Press         Enthalpy        TotEng         KinEng         PotEng    
         0   0              299.59509      299.16706      298.07023     -425.02464      74065.257      75933.487      28594.121      47339.366    
      1000   1000           299.5365       306.74268      292.91315     -145.70453      75292.33       75932.786      28588.53       47344.256    
      2000   2000           300.82871      298.23684      300.40636     -247.70987      74839.656      75928.485      28711.861      47216.624    
      3000   3000           299.47904      288.12842      303.71436     -120.79335      75402.199      75933.156      28583.045      47350.111    
      4000   4000           299.32509      308.20383      301.70228     -164.86832      75206.849      75931.541      28568.352      47363.189    
      5000   5000           299.69758      298.59679      301.18656     -533.45169      73593.521      75938.351      28603.903      47334.447    
      6000   6000           300.68017      307.31614      295.69015      162.94041      76650.712      75934.495      28697.685      47236.81     
      7000   7000           299.94173      299.11437      299.46402     -353.84218      74380.892      75936.234      28627.205      47309.029    
      8000   8000           299.58768      298.93327      296.18913     -122.47968      75399.675      75938.044      28593.414      47344.631    
      9000   9000           299.95163      301.38388      298.19297     -914.05271      71916.831      75934.623      28628.151      47306.472    
     10000   10000          298.38727      293.25796      296.5708       115.06575      76444.356      75938.575      28478.844      47459.731    
Loop time of 128.903 on 32 procs for 10000 steps with 32020 atoms

Performance: 6.703 ns/day, 3.581 hours/ns, 77.578 timesteps/s, 2.484 Matom-step/s
99.4% CPU use with 32 MPI tasks x 1 OpenMP threads

MPI task timing breakdown:
Section |  min time  |  avg time  |  max time  |%varavg| %total
---------------------------------------------------------------
Pair    | 80.353     | 86.654     | 93.37      |  31.7 | 67.22
Bond    | 1.6409     | 1.7851     | 1.9152     |   5.1 |  1.38
Kspace  | 21.438     | 28.228     | 34.323     |  54.5 | 21.90
Neigh   | 5.5486     | 5.616      | 5.6742     |   1.7 |  4.36
Comm    | 4.4073     | 5.324      | 6.0617     |  20.9 |  4.13
Output  | 0.0011002  | 0.0018802  | 0.003649   |   1.2 |  0.00
Modify  | 0.052613   | 0.058813   | 0.068599   |   1.5 |  0.05
Other   |            | 1.235      |            |       |  0.96

Nlocal:        1000.62 ave        1034 max         962 min
Histogram: 1 0 5 4 6 4 3 2 4 3
Nghost:        11941.5 ave       12021 max       11869 min
Histogram: 2 0 7 4 6 2 6 2 2 1
Neighs:         610609 ave      642185 max      565613 min
Histogram: 1 0 4 3 3 5 5 5 4 2

Total # of neighbors = 19539500
Ave neighs/atom = 610.22798
Ave special neighs/atom = 10.738289
Neighbor list builds = 400
Dangerous builds = 0
unfix md2

# STEP 2 - MD for thermal conductivity
# 2a - impose nve
fix md3 all nve

# 2b - impose heat flux
fix hot all ehex 1 ${heat_flux} region hot
fix hot all ehex 1 0.05 region hot
fix cold all ehex 1 ${heat_flux_neg} region cold
fix cold all ehex 1 -0.05 region cold

# 2c - calculate thermal profile
compute ke all ke/atom
variable temp atom c_ke/(1.5*0.001987204)

compute layers all chunk/atom bin/1d x lower 0.05 units reduced
fix bins all ave/chunk ${nEvery} ${nRepeat} ${tLog} layers v_temp file Tprofile_x_ehex.dat
fix bins all ave/chunk 10 ${nRepeat} ${tLog} layers v_temp file Tprofile_x_ehex.dat
fix bins all ave/chunk 10 100 ${tLog} layers v_temp file Tprofile_x_ehex.dat
fix bins all ave/chunk 10 100 1000 layers v_temp file Tprofile_x_ehex.dat

variable tdiff equal c_Thot-c_Tcold
fix ave all ave/time ${nEvery} ${nRepeat} ${tLog} v_tdiff ave running start ${diffT_delay}
fix ave all ave/time 10 ${nRepeat} ${tLog} v_tdiff ave running start ${diffT_delay}
fix ave all ave/time 10 100 ${tLog} v_tdiff ave running start ${diffT_delay}
fix ave all ave/time 10 100 1000 v_tdiff ave running start ${diffT_delay}
fix ave all ave/time 10 100 1000 v_tdiff ave running start 20000

# pre define kappa
variable kappa_inst equal 0
variable kappa equal 0

# 2d - thermo out
# dump dump_tc all custom 1000 dump.tc_x_ehex.lammpstrj id type mol x y z ix iy iz vx vy vz
thermo_style custom step time v_kappa v_kappa_inst c_Thot c_Tcold v_tdiff f_ave temp press enthalpy etotal ke pe
WARNING: New thermo_style command, previous thermo_modify settings will be lost (src/output.cpp:904)
thermo_modify colname v_kappa kappa colname v_kappa_inst kappa_inst colname c_Thot Temp_hot colname c_Tcold Temp_cold colname v_tdiff dTemp_step colname f_ave dTemp
thermo_modify flush yes
thermo ${tLog}
thermo 1000

# 2e - prerun
run ${tPrerun}
run 10000
PPPM initialization ...
  using 12-bit tables for long-range coulomb (src/kspace.cpp:342)
  G vector (1/distance) = 0.25627571
  grid = 50 54 48
  stencil order = 5
  estimated absolute RMS force accuracy = 0.0003553538
  estimated relative force accuracy = 1.0701374e-06
  using double precision FFTW3
  3d grid and FFT values/proc = 11780 5400
Generated 21 of 21 mixed pair_coeff terms from arithmetic mixing rule
Per MPI rank memory allocation (min/avg/max) = 18.93 | 19.07 | 19.15 Mbytes
   Step          Time          kappa        kappa_inst      Temp_hot      Temp_cold      dTemp_step       dTemp           Temp          Press         Enthalpy        TotEng         KinEng         PotEng    
     10000   10000          0              0              292.99959      296.5708      -3.5712086      0              298.38727      115.06575      76444.356      75938.575      28478.844      47459.731    
     11000   11000          0              0              308.10076      296.82015      11.280616      0              299.20048     -18.703738      75853.649      75935.863      28556.459      47379.404    
     12000   12000          0              0              303.86769      293.7087       10.158994      0              299.82941     -346.95656      74408.08       75933.156      28616.486      47316.67     
     13000   13000          0              0              309.97992      290.21498      19.76494       0              300.44624     -3.2768979      75914.179      75928.583      28675.358      47253.226    
     14000   14000          0              0              311.77111      304.22623      7.5448787      0              298.76862     -469.24777      73873.854      75936.471      28515.241      47421.23     
     15000   15000          0              0              313.26911      298.39411      14.874997      0              299.76412      368.25135      77555.036      75936.358      28610.255      47326.103    
     16000   16000          0              0              311.80424      286.14447      25.659776      0              300.03554      31.768887      76070.323      75930.681      28636.159      47294.522    
     17000   17000          0              0              310.35332      292.21872      18.134599      0              300.75461      185.50865      76746.202      75930.783      28704.789      47225.994    
     18000   18000          0              0              314.77961      299.45193      15.327689      0              297.67608      33.824421      76084.313      75935.635      28410.967      47524.668    
     19000   19000          0              0              305.99789      291.44077      14.557115      0              298.87491     -448.63767      73963.148      75935.171      28525.385      47409.786    
     20000   20000          0              0              311.62137      290.38938      21.231985      21.999748      301.01006      942.54502      80073.369      75930.337      28729.17       47201.167    
Loop time of 127.231 on 32 procs for 10000 steps with 32020 atoms

Performance: 6.791 ns/day, 3.534 hours/ns, 78.597 timesteps/s, 2.517 Matom-step/s
99.4% CPU use with 32 MPI tasks x 1 OpenMP threads

MPI task timing breakdown:
Section |  min time  |  avg time  |  max time  |%varavg| %total
---------------------------------------------------------------
Pair    | 79.675     | 85.656     | 91.253     |  28.9 | 67.32
Bond    | 1.6254     | 1.7859     | 1.9135     |   5.3 |  1.40
Kspace  | 21.49      | 26.957     | 32.731     |  50.3 | 21.19
Neigh   | 5.4949     | 5.5753     | 5.6416     |   1.8 |  4.38
Comm    | 4.5378     | 5.3652     | 6.2085     |  20.1 |  4.22
Output  | 0.0014228  | 0.0015019  | 0.0022699  |   0.4 |  0.00
Modify  | 1.1134     | 1.6133     | 2.1445     |  23.8 |  1.27
Other   |            | 0.2768     |            |       |  0.22

Nlocal:        1000.62 ave        1049 max         972 min
Histogram: 4 7 3 2 8 1 3 1 1 2
Nghost:        11933.3 ave       12017 max       11825 min
Histogram: 2 1 1 2 4 9 5 2 3 3
Neighs:         610530 ave      642703 max      573711 min
Histogram: 1 4 2 4 3 4 3 5 4 2

Total # of neighbors = 19536947
Ave neighs/atom = 610.14825
Ave special neighs/atom = 10.738289
Neighbor list builds = 399
Dangerous builds = 0

# 2f - calc kappa
variable kappa_inst equal (${heat_flux}/(ly*lz)/2.0)*(lx/2.0)/v_tdiff*69478.5785
variable kappa_inst equal (0.05/(ly*lz)/2.0)*(lx/2.0)/v_tdiff*69478.5785
variable kappa equal (${heat_flux}/(ly*lz)/2.0)*(lx/2.0)/f_ave*69478.5785
variable kappa equal (0.05/(ly*lz)/2.0)*(lx/2.0)/f_ave*69478.5785

# 2g - md run for kappa calculation
# optional traj dump
if "${boolDump} == 1" then     "dump tc_dump all atom ${tDump} dump.tc_x.lammpstrj"
run ${tTCrun}
run 1000000
PPPM initialization ...
  using 12-bit tables for long-range coulomb (src/kspace.cpp:342)
  G vector (1/distance) = 0.25627571
  grid = 50 54 48
  stencil order = 5
  estimated absolute RMS force accuracy = 0.0003553538
  estimated relative force accuracy = 1.0701374e-06
  using double precision FFTW3
  3d grid and FFT values/proc = 11780 5400
Generated 21 of 21 mixed pair_coeff terms from arithmetic mixing rule
Per MPI rank memory allocation (min/avg/max) = 19.18 | 19.33 | 19.4 Mbytes
   Step          Time          kappa        kappa_inst      Temp_hot      Temp_cold      dTemp_step       dTemp           Temp          Press         Enthalpy        TotEng         KinEng         PotEng    
     20000   20000          0.58792694     0.59506633     312.12519      290.38938      21.735803      21.999748      301.01006      942.545        80073.369      75930.337      28729.17       47201.167    
     21000   21000          0.5390695      0.58873362     312.99288      291.02328      21.969604      23.993649      300.48453      34.404998      76085.903      75934.673      28679.012      47255.661    
     22000   22000          0.52449576     0.48900156     316.06338      289.61307      26.450313      24.660341      300.56476      154.1038       76617.302      75939.926      28686.669      47253.258    
     23000   23000          0.48877391     0.3182468      313.35631      272.71413      40.642182      26.462632      299.00317     -113.92821      75432.092      75932.873      28537.627      47395.246    
     24000   24000          0.46818649     0.34506619     311.3105       273.82713      37.483373      27.626266      299.4624       545.58714      78330.873      75932.701      28581.458      47351.243    
     25000   25000          0.4644001      0.5804577      317.6498       295.36696      22.282837      27.851511      299.3599       163.56161      76652.407      75933.458      28571.674      47361.784    
     26000   26000          0.45845172     0.44407085     316.29198      287.16545      29.126533      28.212882      300.33474     -372.49682      74296.052      75933.392      28664.716      47268.676    
     27000   27000          0.46468315     0.37800481     320.8214       286.60426      34.217142      27.834546      299.4479       598.91824      78566.08       75933.486      28580.073      47353.413    
     28000   28000          0.46305507     0.44144171     312.64029      283.34029      29.300005      27.932411      299.47256     -138.70186      75319.651      75929.326      28582.426      47346.899    
     29000   29000          0.45399646     0.34282008     318.84569      281.11673      37.728959      28.489747      298.08735     -417.97877      74105.479      75942.738      28450.219      47492.519    
     30000   30000          0.43755683     0.36813942     314.10238      278.96829      35.134092      29.560148      299.96338     -556.83568      73483.341      75930.958      28629.272      47301.685    
     31000   31000          0.43283847     0.33868286     313.91545      275.72561      38.189841      29.882382      299.10028      95.984647      76358.934      75937.026      28546.896      47390.13     
     32000   32000          0.42186066     0.33166414     310.33988      271.34186      38.998019      30.659992      298.74351     -731.08759      72720.466      75934.02       28512.844      47421.176    
     33000   33000          0.4151968      0.44831895     307.71311      278.86257      28.850541      31.152081      299.24728     -92.780109      75531.701      75939.524      28560.925      47378.598    
     34000   34000          0.40734316     0.43451621     312.44634      282.67934      29.767001      31.752698      298.11271      322.58287      77357.118      75939.179      28452.639      47486.54     
     35000   35000          0.40204551     0.34237425     317.20901      279.43093      37.778088      32.171095      298.46708      554.19627      78378.656      75942.642      28486.461      47456.181    
     36000   36000          0.39514355     0.28019557     324.27059      278.1091       46.161488      32.733027      300.02387     -495.19031      73749.75       75926.399      28635.045      47291.354    
     37000   37000          0.38731236     0.24341666     323.4033       270.26707      53.136234      33.394866      298.50791     -431.55051      74039.09       75936.005      28490.358      47445.647    
     38000   38000          0.38216246     0.35260227     315.0232       278.34096      36.682249      33.844885      298.20405      360.42081      77516.113      75931.854      28461.357      47470.497    
     39000   39000          0.37637516     0.26222311     323.87548      274.55014      49.325342      34.365298      299.49098      40.201444      76112.786      75936.078      28584.185      47351.892    
     40000   40000          0.37199174     0.2944466      326.64519      282.71789      43.927301      34.770246      299.67474     -279.80062      74704.468      75934.354      28601.723      47332.631    
     41000   41000          0.36830887     0.32052225     312.19219      271.83853      40.353656      35.117928      300.38005      150.97865      76598.735      75935.096      28669.04       47266.056    
     42000   42000          0.36437489     0.32300919     322.21933      282.17637      40.042961      35.497079      298.74975      695.97885      78995.619      75936.388      28513.44       47422.948    
     43000   43000          0.35817534     0.26270353     321.71924      272.48411      49.235138      36.111488      298.10323     -374.80682      74287.571      75935.065      28451.734      47483.331    
     44000   44000          0.35418469     0.33145193     313.62922      274.60623      39.022987      36.518361      299.22591     -744.08308      72665.188      75935.865      28558.886      47376.979    
     45000   45000          0.35018831     0.23361123     325.50984      270.14331      55.366534      36.935112      299.90835     -447.09032      73963.979      75929.201      28624.02       47305.181    
     46000   46000          0.34636486     0.25795537     317.53209      267.39068      50.141404      37.342831      299.1692       362.01893      77527.545      75936.262      28553.474      47382.788    
     47000   47000          0.34401889     0.28135733     322.71386      276.74298      45.97088       37.597483      298.36675      259.04011      77070.122      75931.491      28476.885      47454.605    
     48000   48000          0.34277014     0.33897545     313.26605      275.10917      38.156877      37.734455      299.83411     -765.54937      72567.455      75932.489      28616.935      47315.554    
     49000   49000          0.34052013     0.32154514     311.33998      271.1147       40.225283      37.983788      299.43341      191.59101      76774.536      75932.382      28578.691      47353.692    
     50000   50000          0.33822237     0.23924732     329.66666      275.60443      54.062232      38.241836      299.83773      1164.2889      81050.519      75932.793      28617.28       47315.513    
     51000   51000          0.33504132     0.2295705      328.09206      271.751        56.341055      38.604923      299.05659      67.711777      76235.249      75937.617      28542.726      47394.891    
     52000   52000          0.33175307     0.22749336     326.27213      269.41665      56.855481      38.987565      299.75851     -205.81546      75021.733      75926.412      28609.718      47316.693    
     53000   53000          0.32999796     0.20330991     335.17939      271.56103      63.618365      39.194923      300.52665     -9.781808       75890.868      75933.864      28683.032      47250.833    
     54000   54000          0.32656977     0.2107014      327.78422      266.39762      61.386608      39.606374      299.41668     -56.608387      75685.054      75933.881      28577.094      47356.787    
     55000   55000          0.32414375     0.25912444     321.7592       271.84401      49.915186      39.902803      298.62513      411.9697       77754.246      75943.4        28501.546      47441.854    
     56000   56000          0.32119485     0.254791       323.96827      273.20413      50.764134      40.269153      299.55072     -300.88065      74615.072      75937.617      28589.887      47347.73     
     57000   57000          0.3194364      0.30898903     315.97194      274.11206      41.859882      40.490828      299.79702      4.5135905      75950.407      75930.567      28613.394      47317.173    
     58000   58000          0.31635934     0.24227641     317.31673      263.93041      53.386312      40.88466       300.83283      260.96298      77077.967      75930.883      28712.255      47218.628    
     59000   59000          0.31343393     0.23172198     325.11164      269.2937       55.817943      41.266255      299.09577      323.42923      77360.999      75939.339      28546.466      47392.874    
     60000   60000          0.3103791      0.2135853      318.26291      257.70516      60.557747      41.672408      298.2674       84.004549      76306.603      75937.354      28467.403      47469.951    
     61000   61000          0.30800128     0.25141262     324.88406      273.43778      51.446282      41.994125      298.92517      43.884856      76129.999      75937.099      28530.183      47406.917    
     62000   62000          0.30707854     0.39755382     310.33748      277.80291      32.534575      42.120313      300.11219      204.44149      76829.591      75930.952      28643.475      47287.477    
     63000   63000          0.30630743     0.22529524     330.40316      272.99296      57.410199      42.226349      300.49643     -708.75468      72814.948      75930.336      28680.148      47250.188    
     64000   64000          0.30549605     0.20591666     328.49142      265.67842      62.813006      42.3385        298.60798      439.38926      77866.164      75934.793      28499.909      47434.884    
     65000   65000          0.30417915     0.27883605     319.22488      272.83833      46.386557      42.521798      300.64525      103.25181      76387.592      75933.74       28694.351      47239.389    
     66000   66000          0.30259149     0.20492636     327.11611      263.99956      63.116546      42.744905      298.56065      12.776989      75992.978      75936.815      28495.392      47441.423    
     67000   67000          0.30144041     0.1961458      330.87297      264.93098      65.94199       42.90813       298.61652      78.801619      76283.35       75936.971      28500.724      47436.247    
     68000   68000          0.3002348      0.2299281      332.53907      276.28564      56.25343       43.080431      300.79427      112.97889      76426.663      75930.055      28708.574      47221.481    
     69000   69000          0.29874257     0.24289405     320.75732      267.50676      53.25056       43.295618      300.69147     -416.38677      74103.157      75933.418      28698.763      47234.656    
     70000   70000          0.29680155     0.22387881     332.87523      275.10182      57.77342       43.578763      299.81714     -412.9193       74124.927      75939.947      28615.315      47324.632    
     71000   71000          0.29477555     0.28120475     321.27135      275.27552      45.995824      43.878281      299.96096     -200.82159      75049.127      75931.854      28629.041      47302.813    
     72000   72000          0.2935792      0.2294781      326.91669      270.55295      56.363742      44.057087      298.85994     -595.32256      73319.593      75936.381      28523.957      47412.424    
     73000   73000          0.2923029      0.19569769     332.34898      266.25599      66.092986      44.249456      299.90038     -236.78827      74887.241      75928.063      28623.259      47304.804    
     74000   74000          0.29093564     0.20337853     333.734        270.1371       63.596903      44.457408      300.27464     -516.70314      73663.599      75934.809      28658.98       47275.83     
     75000   75000          0.28966728     0.23259691     329.72507      274.11709      55.607981      44.652073      300.41169      952.44191      80116.943      75930.408      28672.06       47258.348    
     76000   76000          0.28805572     0.19343771     329.10222      262.23705      66.865163      44.901884      299.91939      304.08848      77270.309      75933.664      28625.073      47308.59     
     77000   77000          0.28585993     0.17623828     336.85049      263.45983      73.390665      45.246791      299.04076      88.630935      76326.256      75936.671      28541.215      47395.457    
     78000   78000          0.28369238     0.2158415      334.68405      274.75932      59.924733      45.592498      299.60946      318.27856      77331.694      75932.675      28595.493      47337.182    
     79000   79000          0.28226395     0.22345093     324.93888      267.05483      57.884049      45.823225      298.65894      159.37508      76633.706      75933.16       28504.773      47428.387    
     80000   80000          0.28160155     0.24890825     332.79201      280.8281       51.963905      45.931013      299.51464      41.489094      76119.796      75937.428      28586.443      47350.984    
     81000   81000          0.28081301     0.23526673     327.42358      272.44664      54.976939      46.05999       300.97987      719.45944      79087.655      75925.213      28726.288      47198.925    
     82000   82000          0.28026088     0.24180585     317.95427      264.46406      53.490206      46.15073       299.63717      95.251308      76353.547      75934.862      28598.138      47336.724    
     83000   83000          0.27994642     0.28460683     316.60779      271.16178      45.446009      46.202571      299.42805      190.64469      76773.664      75935.67       28578.179      47357.491    
     84000   84000          0.27981801     0.25965047     329.06884      279.25478      49.814062      46.223774      301.71489      316.01957      77317.912      75928.822      28796.44       47132.382    
     85000   85000          0.27951439     0.20934453     328.82653      267.04205      61.784487      46.273984      298.8256      -362.5541       74342.833      75936.468      28520.679      47415.789    
     86000   86000          0.2792655      0.21359557     334.5821       274.02727      60.554835      46.315225      299.44096      117.38864      76446.465      75930.474      28579.411      47351.063    
     87000   87000          0.27929838     0.30095837     318.67663      275.69977      42.976855      46.309772      299.47369     -622.68243      73197.951      75935.002      28582.534      47352.468    
     88000   88000          0.27928283     0.26215747     322.56202      273.22432      49.337692      46.312351      298.44116     -244.28667      74856.603      75930.385      28483.988      47446.398    
     89000   89000          0.27891573     0.28156679     319.30456      273.36788      45.936684      46.373306      299.66271     -279.22579      74706.171      75933.53       28600.575      47332.955    
     90000   90000          0.27855825     0.29328656     316.64537      272.54432      44.101047      46.432818      299.88257      296.7142       77232.761      75928.53       28621.559      47306.971    
     91000   91000          0.27820052     0.27015511     316.34897      268.47186      47.877104      46.492523      299.42526     -758.68288      72602.453      75937.305      28577.913      47359.392    
     92000   92000          0.27826139     0.30247345     320.57655      277.81496      42.761585      46.482353      301.48212     -90.296782      75534.898      75931.805      28774.224      47157.581    
     93000   93000          0.27822512     0.26168778     323.17025      273.74401      49.426245      46.488414      299.49662     -266.26935      74760.494      75930.902      28584.723      47346.179    
     94000   94000          0.27879842     0.25518633     321.53724      270.85175      50.685492      46.392818      301.48261     -540.74871      73548.031      75924.935      28774.271      47150.664    
     95000   95000          0.27873156     0.25052845     327.48603      275.85818      51.627847      46.403946      298.47039     -813.73337      72363.726      75940.557      28486.778      47453.78     
     96000   96000          0.27866469     0.26954987     320.97066      272.98606      47.984606      46.415082      299.9224      -305.01715      74592.029      75932.756      28625.361      47307.395    
     97000   97000          0.27845817     0.29029894     318.35069      273.79578      44.554914      46.449505      299.72598     -208.32679      75015.001      75930.718      28606.614      47324.104    
     98000   98000          0.27827798     0.27512475     325.18298      278.17069      47.012289      46.479583      300.44182      295.32578      77231.609      75933.481      28674.935      47258.545    
     99000   99000          0.27829855     0.24528024     327.81615      275.08363      52.732517      46.476147      299.12913      71.211787      76254.376      75941.359      28549.649      47391.71     
    100000   100000         0.27825866     0.26378217     319.31031      270.2765       49.033808      46.482809      300.18411      80.840421      76283.433      75928.093      28650.339      47277.753    
    101000   101000         0.27801028     0.23807903     325.9383       271.61077      54.327525      46.524338      299.75958      292.35295      77218.398      75933.337      28609.821      47323.515    
    102000   102000         0.27780381     0.30244391     316.33363      273.56787      42.765762      46.558917      299.03252      282.6001       77176.011      75933.82       28540.428      47393.392    
    103000   103000         0.27723238     0.21081056     328.91825      267.56343      61.354822      46.654884      299.70017     -166.30723      75203.746      75934.763      28604.15       47330.613    
    104000   104000         0.27663759     0.2663004      326.3435       277.77337      48.570127      46.755195      299.13404     -330.21177      74480.346      75931.818      28550.117      47381.701    
    105000   105000         0.27628905     0.28009924     319.67364      273.49628      46.177364      46.814177      299.39289     -160.63558      75224.094      75930.181      28574.823      47355.358    
    106000   106000         0.27595397     0.27896067     319.46369      273.09785      46.365835      46.871021      299.18016      308.91774      77290.774      75932.901      28554.52       47378.381    
    107000   107000         0.27567087     0.24221371     324.96177      271.56164      53.400134      46.919155      300.36822     -835.48173      72256.657      75929.085      28667.911      47261.173    
    108000   108000         0.27534591     0.27235492     322.13554      274.64514      47.490402      46.97453       300.39833      725.30581      79119.078      75930.938      28670.785      47260.153    
    109000   109000         0.27483537     0.22667274     329.9197       272.85838      57.061314      47.061789      299.07737     -618.95539      73211.031      75931.699      28544.709      47386.99     
    110000   110000         0.27408069     0.22240754     326.06086      267.90526      58.155601      47.191374      300.00323      78.644982      76278.162      75932.471      28633.075      47299.396    
    111000   111000         0.27337002     0.25115069     316.66952      265.16959      51.499935      47.314055      297.77427     -237.08945      74895.491      75937.637      28420.337      47517.3      
    112000   112000         0.27317156     0.22739157     326.00435      269.12342      56.880933      47.348429      301.13941     -437.32989      74003.972      75926.291      28741.515      47184.775    
    113000   113000         0.27264912     0.18673983     333.23017      263.96672      69.263446      47.439157      300.09381     -329.39849      74480.399      75928.297      28641.72       47286.576    
    114000   114000         0.27208301     0.2565388      320.12669      269.70841      50.418278      47.537862      300.65763     -636.07976      73138.306      75934.246      28695.533      47238.713    
    115000   115000         0.27148367     0.2119374      327.95876      266.93015      61.028607      47.642809      299.98446      252.9965       77042.865      75930.798      28631.284      47299.514    
    116000   116000         0.27106525     0.25554439     323.45001      272.83554      50.614472      47.716351      298.20129     -369.15357      74318.467      75941.111      28461.094      47480.017    
    117000   117000         0.27060575     0.23245517     322.8988       267.25691      55.641888      47.797374      299.32552      85.767305      76309.606      75932.609      28568.393      47364.216    
    118000   118000         0.27002938     0.21891489     322.2964       263.21296      59.083437      47.899397      299.53144     -3.2622737      75922.868      75937.207      28588.047      47349.16     
    119000   119000         0.26974738     0.28590701     319.73141      274.49207      45.23934       47.949472      300.935       -788.18137      72474.864      75939.379      28722.005      47217.374    
    120000   120000         0.26922878     0.25892426     320.29017      270.33639      49.953776      48.041834      299.54744      562.00078      78411.062      75940.742      28589.574      47351.168    
    121000   121000         0.26907504     0.23600678     325.97442      271.16988      54.804546      48.069284      299.11719     -3.3620713      75922.363      75937.141      28548.51       47388.631    
    122000   122000         0.26893016     0.26637191     325.76254      277.20545      48.557088      48.095179      300.45523     -308.68205      74573.791      75930.628      28676.216      47254.412    
    123000   123000         0.26857704     0.22305622     331.56502      273.57854      57.986476      48.158415      300.08821     -50.881651      75712.152      75935.806      28641.186      47294.62     
    124000   124000         0.26822409     0.23770688     323.88253      269.46995      54.412579      48.221784      298.58433      498.4384       78124.016      75933.089      28497.652      47435.438    
    125000   125000         0.26800468     0.25822704     331.22709      281.13844      50.088651      48.261264      299.91294     -37.652054      75770.857      75936.359      28624.458      47311.902    
    126000   126000         0.26792625     0.29293571     317.12324      272.96937      44.153868      48.275391      297.80271     -104.99183      75473.521      75935.021      28423.052      47511.969    
    127000   127000         0.26772499     0.22254502     332.73579      274.61611      58.119676      48.311681      298.58963      431.65917      77832.661      75935.268      28498.158      47437.11     
    128000   128000         0.26743954     0.2552151      319.03346      268.35369      50.679777      48.363247      298.8765      -96.334811      75513.74       75937.188      28525.537      47411.651    
    129000   129000         0.26754768     0.22405402     326.0588       268.33056      57.72824       48.343698      299.87822      229.4602       76938.045      75929.434      28621.144      47308.29     
    130000   130000         0.26750101     0.26401019     325.71467      276.72321      48.991459      48.352133      299.28507     -55.733577      75691.311      75936.292      28564.532      47371.76     
    131000   131000         0.26740723     0.25063585     321.44458      269.83885      51.605725      48.369089      298.94789     -692.28541      72891.127      75934.123      28532.351      47401.772    
    132000   132000         0.2672254      0.29695938     319.19664      275.64104      43.555601      48.402003      300.91131      6.3866707      75962.265      75934.192      28719.745      47214.447    
    133000   133000         0.26724436     0.2704208      330.16664      282.33658      47.830065      48.398568      299.55515      277.43833      77157.282      75937.779      28590.309      47347.47     
    134000   134000         0.267005       0.25564284     326.00059      275.40561      50.59498       48.441956      299.13549     -387.99296      74235.125      75940.579      28550.256      47390.323    
    135000   135000         0.2666891      0.21097235     326.9423       265.63453      61.30777       48.499337      299.86085      276.67507      77152.715      75936.568      28619.486      47317.081    
    136000   136000         0.26611716     0.21933103     331.82338      272.85204      58.971338      48.603571      299.05299      579.22367      78481.161      75935.137      28542.382      47392.755    
    137000   137000         0.26563078     0.20862201     330.42935      268.43088      61.998464      48.692567      298.81848     -345.99292      74407.47       75928.31       28520          47408.309    
    138000   138000         0.26518021     0.20583944     330.0285       267.19193      62.836569      48.7753        299.29153     -378.81803      74270.635      75935.76       28565.149      47370.611    
    139000   139000         0.26452213     0.18913107     335.96815      267.58042      68.387728      48.896645      300.07093     -201.66655      75040.85       75927.292      28639.537      47287.755    
    140000   140000         0.26419632     0.20996482     332.03018      270.42822      61.601959      48.956944      298.57668      842.62657      79641.262      75937.429      28496.922      47440.507    
    141000   141000         0.26370586     0.22559258     330.8058       273.47127      57.334529      49.047997      297.18155     -288.29641      74675.171      75942.401      28363.767      47578.634    
    142000   142000         0.26326599     0.2245826      328.89986      271.30749      57.59237       49.129948      299.17794      46.007148      76136.342      75934.114      28554.307      47379.806    
    143000   143000         0.26286473     0.18891632     346.4995       278.03403      68.465469      49.204944      298.41828     -1117.4232      71028.661      75940.385      28481.803      47458.582    
    144000   144000         0.26219731     0.23443487     330.74584      275.57382      55.172017      49.330196      297.80018     -254.0673       74820.856      75937.629      28422.811      47514.819    
    145000   145000         0.26173673     0.17779457     342.77595      270.02769      72.748255      49.417002      299.79776     -453.42658      73936.547      75929.621      28613.465      47316.156    
    146000   146000         0.26133547     0.22692543     330.63919      273.64142      56.997775      49.492877      299.35334      139.83496      76556.124      75941.468      28571.048      47370.419    
    147000   147000         0.26117946     0.22200368     324            265.73861      58.261398      49.522441      300.88969      533.05715      78280.112      75937.017      28717.681      47219.335    
    148000   148000         0.26092202     0.27304127     327.3233       279.95228      47.371024      49.571302      299.85622     -309.55103      74570.188      75930.845      28619.044      47311.801    
    149000   149000         0.26053438     0.19827387     335.17685      269.94261      65.234236      49.645058      299.58734     -313.68747      74558.452      75937.291      28593.381      47343.909    
    150000   150000         0.26008191     0.17800043     337.39652      264.7324       72.664118      49.731427      300.2339       124.8528       76477.659      75928.859      28655.091      47273.768    
    151000   151000         0.25976887     0.25045792     331.29833      279.65594      51.642386      49.791356      300.14599     -224.64798      74944.919      75932.378      28646.701      47285.677    
    152000   152000         0.25937358     0.19390495     338.8748       272.17076      66.704044      49.86724       299.85187      355.00525      77496.734      75936.279      28618.629      47317.65     
    153000   153000         0.25898653     0.2191633      325.31728      266.30081      59.01647       49.941766      299.29323     -188.24817      75107.07       75934.53       28565.311      47369.219    
    154000   154000         0.25857674     0.23610017     325.28747      270.5046       54.782867      50.020911      299.92741      197.24628      76801.904      75934.892      28625.839      47309.053    
    155000   155000         0.25818047     0.22473722     325.23842      267.68567      57.552747      50.097687      300.30073      386.1908       77631.04       75933.507      28661.47       47272.037    
    156000   156000         0.2577815      0.23672391     330.69783      276.05931      54.638521      50.175223      299.60743     -365.37891      74329.987      75936.04       28595.299      47340.74     
    157000   157000         0.25733881     0.19057429     339.47305      271.60322      67.869829      50.261538      299.56649     -303.04914      74601.476      75933.553      28591.392      47342.161    
    158000   158000         0.25702153     0.2145602      324.89852      264.61593      60.28259       50.323584      300.37252     -284.35247      74681.565      75931.46       28668.321      47263.138    
    159000   159000         0.25669179     0.20899684     330.58734      268.70007      61.887273      50.388229      300.23188     -151.40785      75266.447      75931.972      28654.898      47277.074    
    160000   160000         0.25652284     0.22225241     322.96555      264.76935      58.196194      50.421414      298.80394      544.94572      78332.127      75936.774      28518.613      47418.162    
    161000   161000         0.25658704     0.26482208     317.66154      268.82028      48.841261      50.408799      299.43357     -590.89056      73343.607      75940.914      28578.705      47362.209    
    162000   162000         0.25633921     0.20373364     333.58864      270.10259      63.486052      50.457535      299.84942      24.672449      76040.947      75932.497      28618.396      47314.101    
    163000   163000         0.25606157     0.26627268     317.59187      269.01669      48.575184      50.512244      296.79582     -877.43032      72084.557      75941.373      28326.952      47614.421    
    164000   164000         0.25602281     0.31261729     315.45425      274.08019      41.374054      50.519891      297.94009      237.53999      76982.93       75938.804      28436.164      47502.64     
    165000   165000         0.25597554     0.24797409     328.16493      276.00527      52.159662      50.529221      298.835       -74.058302      75613.014      75938.543      28521.576      47416.967    
    166000   166000         0.255998       0.24676639     333.48507      281.07014      52.414935      50.524786      300.49115     -322.14399      74517.848      75933.858      28679.644      47254.215    
    167000   167000         0.25598499     0.26525552     331.67574      282.91429      48.761453      50.527355      299.68332      472.79486      78015.384      75937.176      28602.542      47334.634    
    168000   168000         0.25589724     0.22431312     330.31453      272.65297      57.661561      50.544681      299.99829      281.56211      77173.501      75935.872      28632.604      47303.268    
    169000   169000         0.25565177     0.26963644     320.93132      272.96212      47.9692        50.593213      300.74539     -334.28843      74459.366      75928.758      28703.909      47224.849    
    170000   170000         0.25547258     0.2533871      320.77008      269.72469      51.045394      50.6287        298.01258     -198.56777      75060.308      75933.128      28443.083      47490.046    
    171000   171000         0.25538417     0.22698708     323.34932      266.36702      56.982294      50.646225      297.27922     -150.8261       75281.101      75944.069      28373.089      47570.98     
    172000   172000         0.25515636     0.21051801     331.14705      269.70697      61.440086      50.691443      300.23763     -387.21333      74233.908      75935.936      28655.447      47280.489    
    173000   173000         0.25501169     0.3471624      309.60459      272.34754      37.257043      50.720201      299.42132      209.0414       76855.053      75936.195      28577.536      47358.658    
    174000   174000         0.25503821     0.22779549     325.882        269.10192      56.780073      50.714927      298.53401      411.02186      77746.004      75939.324      28492.85       47446.475    
    175000   175000         0.25488111     0.22029683     332.36593      273.65313      58.712802      50.746186      301.78664     -34.510061      75774.229      75925.92       28803.289      47122.632    
    176000   176000         0.25483374     0.28675876     321.54143      276.43647      45.104966      50.755621      298.34823      327.17134      77372.534      75934.426      28475.118      47459.307    
    177000   177000         0.2549873      0.29826264     322.43432      279.06903      43.365285      50.725053      301.47506      494.25154      78099.74       75927.218      28773.551      47153.667    
    178000   178000         0.25515057     0.22997975     322.64615      266.40536      56.240797      50.692595      298.68858     -228.57678      74931.815      75936.543      28507.602      47428.941    
    179000   179000         0.25523265     0.21088707     334.26826      272.9357       61.332562      50.676292      300.39396      213.0139       76872.596      75936.276      28670.368      47265.908    
    180000   180000         0.25531326     0.30955957     313.53834      271.75561      41.782731      50.660292      298.16527      863.34505      79734.327      75939.424      28457.656      47481.768    
    181000   181000         0.25540881     0.28761381     322.68963      277.71875      44.970874      50.641341      299.90102      185.41289      76750.76       75935.762      28623.32       47312.442    
    182000   182000         0.25531039     0.19128358     335.71646      268.09829      67.618162      50.660861      299.61061      912.471        79948.141      75937.301      28595.603      47341.698    
    183000   183000         0.25524893     0.2513616      322.7641       271.30738      51.456724      50.67306       299.70636     -284.82944      74681.97       75933.961      28604.742      47329.219    
    184000   184000         0.25525592     0.21253577     325.27335      264.41657      60.856789      50.671673      300.13777     -427.54583      74058          75937.312      28645.916      47291.397    
    185000   185000         0.25523409     0.24724599     329.6124       277.29914      52.313263      50.676006      300.94295      31.044859      76070.853      75934.393      28722.765      47211.628    
    186000   186000         0.25523499     0.26570301     324.91573      276.2364       48.67933       50.675828      300.21631     -164.08806      75212.924      75934.186      28653.413      47280.773    
    187000   187000         0.25518149     0.22842651     326.29779      269.67457      56.62322       50.686452      298.92248      142.98582      76563.688      75935.182      28529.926      47405.256    
    188000   188000         0.25525985     0.24338778     325.64885      272.50631      53.142539      50.670892      298.22521     -472.23429      73859.737      75935.481      28463.376      47472.105    
    189000   189000         0.25538523     0.25067042     323.34564      271.74703      51.598607      50.646015      297.42875      97.72101       76366.596      75937.056      28387.361      47549.695    
    190000   190000         0.25539892     0.21527323     335.8622       275.77928      60.08292       50.6433        302.01168     -49.774722      75708.458      75927.247      28824.767      47102.48     
    191000   191000         0.2554394      0.22477706     326.8215       269.27896      57.542547      50.635275      300.86325     -303.51984      74598.59       75932.736      28715.158      47217.578    
    192000   192000         0.25540345     0.28661256     326.29453      281.16656      45.127975      50.642403      299.05017      388.88222      77642.168      75932.805      28542.113      47390.691    
    193000   193000         0.25540603     0.19342939     334.93169      268.06365      66.868042      50.641892      298.64507      101.36121      76381.703      75936.162      28503.449      47432.712    
    194000   194000         0.25552652     0.31610468     322.98262      282.06502      40.917598      50.618011      298.85385      175.37759      76708.489      75937.603      28523.376      47414.227    
    195000   195000         0.2556523      0.29003974     315.21959      270.62486      44.594731      50.593109      298.62252     -144.92333      75305.108      75942.13       28501.296      47440.834    
    196000   196000         0.25582563     0.37135059     316.66432      281.83404      34.830278      50.55883       300.80844      332.8245       77391.653      75928.696      28709.927      47218.769    
    197000   197000         0.25595799     0.35431617     320.02202      283.51721      36.50481       50.532685      301.07345      159.59102      76638.037      75936.542      28735.219      47201.323    
    198000   198000         0.25595765     0.25321792     325.42867      274.34917      51.079499      50.532751      299.88181      394.13596      77665.036      75932.579      28621.487      47311.092    
    199000   199000         0.25585575     0.19032593     337.40563      269.44724      67.958392      50.552877      300.41171      317.22522      77327.203      75932.814      28672.062      47260.752    
    200000   200000         0.25588854     0.34082635     322.41669      284.46703      37.949661      50.5464        301.32923     -527.97594      73606.803      75927.564      28759.632      47167.932    
    201000   201000         0.25594251     0.23750856     331.69247      277.23446      54.458013      50.535742      300.73245     -165.10756      75206.383      75932.127      28702.674      47229.453    
    202000   202000         0.25598841     0.3437212      320.35958      282.72954      37.630045      50.526679      301.038        475.08837      78018.648      75930.359      28731.837      47198.522    
    203000   203000         0.25601794     0.2823181      320.01434      274.19991      45.814436      50.520852      300.5013      -136.75761      75331.07       75932.199      28680.612      47251.587    
    204000   204000         0.25602516     0.20116554     335.8558       271.55928      64.296522      50.519428      299.86613     -358.08033      74360.666      75934.637      28619.99       47314.647    
    205000   205000         0.25616262     0.29740126     321.83669      278.3458       43.490886      50.492318      301.19949     -417.025        74100.123      75933.19       28747.25       47185.94     
    206000   206000         0.25630298     0.32484737     310.95431      271.13793      39.816374      50.464666      299.52432     -528.62778      73609.212      75932.838      28587.367      47345.471    
    207000   207000         0.25642351     0.35678612     312.23428      275.98218      36.252096      50.440946      299.7085      -275.14777      74725.626      75935.061      28604.946      47330.115    
    208000   208000         0.25662357     0.25282657     322.67444      271.51587      51.158564      50.401623      299.35841      381.59903      77607.309      75929.96       28571.532      47358.428    
    209000   209000         0.25665374     0.30342697     325.09635      282.46914      42.627208      50.395698      301.4946       513.34654      78184.526      75928.07       28775.416      47152.654    
    210000   210000         0.25677084     0.21488517     334.31455      274.12313      60.191424      50.372716      299.91565     -982.6975       71607.101      75926.628      28624.717      47301.911    
    211000   211000         0.25677355     0.28579566     326.89285      281.63589      45.256966      50.372183      300.02909     -427.40986      74048.454      75927.169      28635.544      47291.625    
    212000   212000         0.2569006      0.27903476     323.48995      277.13643      46.353523      50.347272      299.41086     -26.350005      75812.337      75928.161      28576.538      47351.623    
    213000   213000         0.25695034     0.28106265     320.89084      274.87176      46.01908       50.337526      299.69266     -535.4655       73573.194      75926.876      28603.434      47323.442    
    214000   214000         0.25712408     0.28101871     325.65059      279.62432      46.026274      50.303513      299.85193      164.29222      76653.289      75931.129      28618.635      47312.495    
    215000   215000         0.25719887     0.28184554     326.19802      280.30677      45.89125       50.288885      299.40546     -739.96869      72683.689      75936.281      28576.022      47360.259    
    216000   216000         0.25735643     0.31078624     322.3882       280.77039      41.617815      50.258097      299.41363      113.56218      76432.818      75933.646      28576.802      47356.844    
    217000   217000         0.25747268     0.23176878     333.91029      278.10362      55.806673      50.235406      300.87049      296.24062      77236.805      75934.656      28715.848      47218.807    
    218000   218000         0.25743364     0.2381611      327.11032      272.80151      54.308803      50.243023      300.16114     -33.885223      75783.212      75932.157      28648.147      47284.01     
    219000   219000         0.25739256     0.25935432     323.86359      273.99265      49.870943      50.251041      299.78679     -169.93085      75181.2        75928.145      28612.417      47315.727    
    220000   220000         0.25734207     0.18669758     335.13255      265.85343      69.279121      50.260901      300.37919     -251.18381      74830.58       75934.679      28668.958      47265.721    
    221000   221000         0.25712604     0.3016512      315.6415       272.76335      42.878147      50.303129      299.40047      19.599101      76024.167      75938.017      28575.546      47362.471    
    222000   222000         0.25695385     0.20910474     325.94142      264.08608      61.855339      50.336838      299.70188     -4.2221446      75916.388      75934.947      28604.314      47330.633    
    223000   223000         0.25673183     0.2297115      324.3123       268.00582      56.306473      50.38037       299.39757     -148.80106      75277.776      75931.844      28575.269      47356.574    
    224000   224000         0.25651519     0.23208208     326.11812      270.38678      55.731337      50.422917      299.90058     -97.045305      75506.174      75932.745      28623.278      47309.466    
    225000   225000         0.25635034     0.25132072     318.29725      266.83216      51.465093      50.455342      298.27476      446.30686      77894.957      75933.179      28468.106      47465.073    
    226000   226000         0.25619586     0.23023653     327.24988      271.07181      56.178072      50.485766      300.05256     -91.363854      75537.632      75939.229      28637.783      47301.446    
    227000   227000         0.25601904     0.20731929     340.77057      278.38253      62.388041      50.520635      300.29253     -629.90734      73165.568      75934.376      28660.687      47273.69     
    228000   228000         0.25575757     0.22222345     328.49298      270.2892       58.203778      50.572283      299.77224     -57.309436      75681.958      75933.866      28611.029      47322.837    
    229000   229000         0.25555744     0.20268258     340.73076      276.91548      63.815275      50.611888      301.75308      343.47115      77437.307      75927.552      28800.085      47127.467    
    230000   230000         0.25535906     0.21912873     327.76845      268.74267      59.025782      50.651206      301.42417      557.19671      78377.046      75927.843      28768.694      47159.149    
    231000   231000         0.25512545     0.31034772     315.27043      273.59381      41.676622      50.697585      300.73946     -113.28609      75432.278      75930.236      28703.344      47226.893    
    232000   232000         0.25499133     0.26641018     327.17046      278.62035      48.550114      50.724251      300.60646      265.87541      77098.153      75929.477      28690.649      47238.828    
    233000   233000         0.25492512     0.28044965     323.67653      277.55686      46.119667      50.737425      300.62173     -69.228182      75627.842      75932.14       28692.106      47240.033    
    234000   234000         0.25484812     0.31081739     316.67235      275.0587       41.613645      50.752755      298.25873      110.79772      76422.414      75935.393      28466.576      47468.818    
    235000   235000         0.25469607     0.21564881     330.08939      270.11112      59.978279      50.783055      300.53296      469.29579      77988.298      75925.471      28683.634      47241.837    
    236000   236000         0.25444243     0.19825477     336.71387      271.47334      65.240522      50.833677      300.26022      277.06835      77152.689      75934.813      28657.603      47277.21     
    237000   237000         0.25426162     0.22224082     335.18746      276.98823      58.19923       50.869827      299.94318      368.84735      77549.372      75928.074      28627.344      47300.73     
    238000   238000         0.25404542     0.24244168     325.17971      271.82979      53.349922      50.913117      299.6663       120.46751      76461.966      75932.441      28600.918      47331.523    
    239000   239000         0.25394641     0.19324702     340.84562      273.91447      66.931146      50.932968      299.29856     -568.23028      73432.426      75930.129      28565.82       47364.309    
    240000   240000         0.25374335     0.22896919     337.88016      281.39114      56.489016      50.973728      300.21142      343.73187      77444.826      75933.925      28652.945      47280.98     
    241000   241000         0.25368669     0.23324728     326.83809      271.38516      55.452927      50.985113      298.87748      400.6422       77698.057      75937.002      28525.631      47411.371    
    242000   242000         0.25371583     0.24958072     324.02081      272.19692      51.823893      50.979257      298.64785      198.09077      76806.974      75936.25       28503.714      47432.536    
    243000   243000         0.25368771     0.2320372      333.52255      277.78044      55.742115      50.984906      298.99519      185.30567      76751.841      75937.315      28536.866      47400.449    
    244000   244000         0.2536326      0.23497205     331.64807      276.60218      55.045885      50.995986      300.01736     -189.79601      75101.01       75935.274      28634.424      47300.85     
    245000   245000         0.25356058     0.26314259     320.41505      271.26207      49.152988      51.01047       299.6787       343.66551      77443.745      75933.136      28602.101      47331.035    
    246000   246000         0.25346632     0.2571108      331.01172      280.70561      50.30611       51.02944       300.48994      439.8339       77863.544      75930.219      28679.528      47250.69     
    247000   247000         0.25328164     0.21635774     334.62343      274.84168      59.78175       51.066649      298.53932     -137.04255      75329.4        75931.781      28493.356      47438.426    
    248000   248000         0.25320359     0.26262656     325.26788      276.01831      49.249567      51.082388      300.75133      174.93734      76697.214      75928.263      28704.476      47223.787    
    249000   249000         0.25306926     0.17932199     335.05742      262.92882      72.128602      51.109505      299.85663      141.43767      76553.942      75932.241      28619.084      47313.157    
    250000   250000         0.25295959     0.28615488     324.08261      278.88245      45.200154      51.131663      300.2565       1045.619       80531.597      75935.494      28657.248      47278.246    
    251000   251000         0.25290318     0.2255455      331.28778      273.94128      57.346497      51.143068      300.081       -479.46526      73821.463      75928.991      28640.498      47288.493    
    252000   252000         0.25275935     0.31139019     317.87486      276.33776      41.537096      51.172169      299.68576     -12.378016      75883.29       75937.699      28602.775      47334.923    
    253000   253000         0.25272139     0.2254874      326.714        269.35272      57.361274      51.179855      299.95061     -152.82397      75263.078      75934.828      28628.053      47306.775    
    254000   254000         0.25260016     0.3226187      315.72028      275.62886      40.091428      51.204419      301.31212      315.91883      77319.256      75930.609      28757.999      47172.61     
    255000   255000         0.25254843     0.19361173     334.27382      267.46875      66.805067      51.214908      301.19005     -497.47558      73742.414      75929.108      28746.349      47182.759    
    256000   256000         0.25244554     0.28893594     319.32836      274.56327      44.765094      51.23578       300.37318      73.807694      76254.193      75929.765      28668.384      47261.381    
    257000   257000         0.2523415      0.25371558     329.54822      278.56891      50.979306      51.256905      297.50194      581.81204      78499.485      75942.083      28394.346      47547.737    
    258000   258000         0.25219498     0.21576999     331.82024      271.87564      59.944595      51.286684      299.88356     -933.42428      71834.522      75937.463      28621.653      47315.81     
    259000   259000         0.25207324     0.19872415     336.28353      271.19711      65.086426      51.311454      299.54712      17.168034      76011.77       75936.306      28589.543      47346.763    
    260000   260000         0.25192501     0.19940179     331.21856      266.35332      64.865236      51.341646      299.91436      264.43483      77100.528      75938.184      28624.593      47313.59     
    261000   261000         0.25180064     0.2486418      327.49887      275.47928      52.01959       51.367003      300.59047     -425.51278      74064.113      75934.488      28689.123      47245.366    
    262000   262000         0.25160826     0.20366455     337.61759      274.11         63.507587      51.406279      301.6987      -217.59342      74979.61       75936.059      28794.896      47141.163    
    263000   263000         0.25154926     0.26254363     324.74473      275.47961      49.265124      51.418337      299.19464      96.247491      76360.79       75937.726      28555.901      47381.825    
    264000   264000         0.25151254     0.20527823     333.2569       270.24855      63.008358      51.425843      300.91688     -752.02577      72625.638      75931.228      28720.276      47210.952    
    265000   265000         0.25146692     0.29627307     318.06797      274.41147      43.656498      51.435173      299.99412      3.5813136      75953.543      75937.801      28632.206      47305.594    
    266000   266000         0.25138324     0.21037723     327.07156      265.59036      61.481199      51.452295      299.29417      717.641        79092.694      75938.245      28565.401      47372.844    
    267000   267000         0.25131172     0.21419774     328.92582      268.54122      60.384597      51.466937      298.75087     -23.423374      75833.068      75936.027      28513.547      47422.48     
    268000   268000         0.25131392     0.28027203     328.6562       282.5073       46.148895      51.466486      300.45316      835.93083      79607.127      75932.725      28676.018      47256.708    
    269000   269000         0.25132246     0.3006108      318.53837      275.51183      43.026546      51.464738      300.17658     -995.75955      71555.584      75932.525      28649.62       47282.905    
    270000   270000         0.25139234     0.28612446     321.84249      276.63753      45.204958      51.450431      299.29091      227.77592      76937.397      75936.19       28565.09       47371.1      
    271000   271000         0.25142801     0.23742502     327.57093      273.09375      54.477174      51.443132      300.95351     -55.656782      75682.065      75926.708      28723.773      47202.936    
    272000   272000         0.25142297     0.23264473     320.17058      264.57403      55.596551      51.444164      299.13974      722.89865      79114.622      75937.062      28550.661      47386.401    
    273000   273000         0.25149157     0.25748781     323.6313       273.39884      50.232453      51.43013       299.20818     -807.33016      72385.798      75934.482      28557.193      47377.289    
    274000   274000         0.25157863     0.2131325      334.40234      273.71594      60.686402      51.412334      302.39636      379.22854      77594.649      75927.72       28861.481      47066.238    
    275000   275000         0.25166892     0.29204744     324.90448      280.61632      44.288162      51.393889      300.16244     -197.25815      75070.364      75937.428      28648.271      47289.157    
    276000   276000         0.25180372     0.24739449     325.66104      273.37918      52.281861      51.366375      300.38935     -194.45096      75084.979      75939.704      28669.928      47269.776    
    277000   277000         0.25188441     0.34209325     316.78718      278.97806      37.809118      51.349919      300.71263      306.25135      77283.051      75936.898      28700.783      47236.116    
    278000   278000         0.25187013     0.27384803     322.02535      274.79388      47.231467      51.352833      300.73142      310.03179      77295.064      75932.294      28702.576      47229.718    
    279000   279000         0.25187597     0.26610571     321.92874      273.32308      48.605662      51.35164       299.96714      530.8001       78265.901      75932.726      28629.631      47303.095    
    280000   280000         0.2519131      0.23635982     321.99389      267.27121      54.722686      51.344072      297.49112      209.21066      76856.384      75936.781      28393.313      47543.468    
    281000   281000         0.25188727     0.27416559     321.19961      274.02285      47.17676       51.349338      300.51957      163.87141      76654.323      75934.013      28682.357      47251.657    
    282000   282000         0.25186091     0.41846134     309.09478      278.18572      30.909055      51.354712      298.25772      39.516475      76114.651      75940.954      28466.479      47474.474    
    283000   283000         0.25185724     0.23038993     326.25768      270.11702      56.140668      51.355459      299.89242     -272.73971      74736.374      75935.223      28622.499      47312.724    
    284000   284000         0.2518199      0.27934121     321.41924      275.11657      46.302671      51.363075      299.53568      133.70738      76529.746      75942.024      28588.451      47353.574    
    285000   285000         0.25185357     0.33496546     314.90898      276.29531      38.613666      51.356209      299.21955     -627.18164      73179.543      75936.37       28558.279      47378.091    
    286000   286000         0.25185814     0.24731857     327.22724      274.92933      52.297911      51.355276      300.01581     -251.44823      74825.973      75931.234      28634.276      47296.957    
    287000   287000         0.25175367     0.24580317     323.18386      270.56353      52.620332      51.376587      300.02768      429.96568      77819.287      75929.338      28635.409      47293.929    
    288000   288000         0.25163377     0.25059943     328.51943      276.90621      51.613224      51.401068      300.6274       36.363204      76087.186      75927.349      28692.648      47234.7      
    289000   289000         0.25148724     0.21095915     333.98617      272.67456      61.311606      51.431016      299.46533     -301.90258      74605.754      75932.791      28581.737      47351.054    
    290000   290000         0.25134766     0.27378196     324.01131      276.76844      47.242866      51.459578      297.49254      198.37898      76811.002      75939.011      28393.449      47545.563    
    291000   291000         0.2511985      0.20506061     341.93901      278.86378      63.075227      51.490134      301.54909      80.185071      76285.782      75933.322      28780.616      47152.706    
    292000   292000         0.2510862      0.21364956     332.93202      272.39248      60.539533      51.513163      301.59867     -310.88284      74567.119      75933.63       28785.348      47148.282    
    293000   293000         0.25091704     0.24773493     325.9444       273.73438      52.210014      51.547891      298.39926     -269.80173      74753.781      75939.716      28479.988      47459.728    
    294000   294000         0.25067553     0.20035693     335.85449      271.29848      64.556013      51.597556      299.15442      266.76274      77109.199      75936.622      28552.063      47384.559    
    295000   295000         0.25050547     0.2355101      329.37232      274.45219      54.920126      51.632582      299.09705     -758.51724      72610.565      75944.689      28546.588      47398.101    
    296000   296000         0.2504154      0.25850837     330.15934      280.1252       50.034141      51.651155      302.27149     -278.55483      74702.256      75926.666      28849.564      47077.102    
    297000   297000         0.25037761     0.23838068     334.70084      280.44206      54.258779      51.658951      300.0786       488.70526      78087.16       75939.017      28640.269      47298.747    
    298000   298000         0.25024932     0.25776496     322.66862      272.49018      50.178444      51.685433      299.05025     -379.55479      74266.095      75934.459      28542.121      47392.338    
    299000   299000         0.25016009     0.24519151     324.18389      271.43229      52.751599      51.703869      301.42966     -227.53056      74932.233      75932.361      28769.217      47163.144    
    300000   300000         0.25011274     0.2807934      320.39962      274.33642      46.063207      51.713656      299.46571     -459.94476      73908.218      75929.942      28581.773      47348.169    
    301000   301000         0.25009158     0.27702769     318.47706      271.7877       46.689356      51.718031      298.97505      45.831548      76137.155      75935.698      28534.943      47400.755    
    302000   302000         0.24998039     0.21094906     333.22709      271.91255      61.314539      51.741037      300.90799     -98.851449      75499.898      75934.407      28719.428      47214.979    
    303000   303000         0.24982361     0.19843695     328.7007       263.52007      65.180625      51.773506      298.47254     -64.172519      75648.741      75930.816      28486.983      47443.834    
    304000   304000         0.24968438     0.2085051      332.96202      270.92879      62.033229      51.802377      299.21489     -899.8793       71980.57       75936.062      28557.834      47378.228    
    305000   305000         0.24958775     0.23686057     326.47968      271.87268      54.606997      51.822433      302.04917     -206.67805      75018.966      75927.436      28828.345      47099.091    
    306000   306000         0.2496227      0.24436266     323.79467      270.86415      52.930527      51.815177      299.5859       249.66813      77028.581      75931.145      28593.244      47337.901    
    307000   307000         0.24960046     0.19363118     339.68677      272.88841      66.798357      51.819794      298.64303      51.474576      76160.381      75934.12       28503.255      47430.866    
    308000   308000         0.24954909     0.21202795     328.1753       267.17276      61.002545      51.83046       299.48791      248.70804      77031.525      75938.309      28583.892      47354.417    
    309000   309000         0.24953145     0.24777256     323.81123      271.60914      52.202087      51.834124      300.16569     -237.86281      74888.427      75933.972      28648.581      47285.392    
    310000   310000         0.24956194     0.2098926      331.44769      269.82454      61.623157      51.827792      299.59149      651.74438      78800.48       75935.685      28593.778      47341.907    
    311000   311000         0.2494736      0.21238308     333.46496      272.56442      60.900541      51.846144      299.80675      651.88172      78800.085      75934.686      28614.323      47320.363    
    312000   312000         0.24940353     0.24502968     315.294        262.50756      52.786439      51.860711      301.02388     -536.26494      73573.402      75930.598      28730.488      47200.109    
    313000   313000         0.24936071     0.2692336      317.0946       269.05362      48.040974      51.869617      299.83335     -699.85261      72858.26       75934.519      28616.861      47317.657    
    314000   314000         0.24928409     0.28187358     328.42391      282.53722      45.886685      51.88556       299.81867     -659.3733       73034.151      75932.479      28615.46       47317.019    
    315000   315000         0.24926923     0.22293231     328.54281      270.5241       58.018707      51.888652      299.6778       133.14559      76520.651      75935.399      28602.015      47333.384    
    316000   316000         0.24921742     0.27294439     321.39153      274.00369      47.387837      51.89944       299.73011     -32.383656      75796.085      75938.43       28607.008      47331.422    
    317000   317000         0.24926747     0.25594213     328.5326       277.99678      50.535815      51.889018      300.22105     -137.54332      75327.609      75932.191      28653.865      47278.327    
    318000   318000         0.24940857     0.28840487     319.58095      274.73342      44.847525      51.859663      300.61144      106.74036      76405.548      75936.363      28691.124      47245.239    
    319000   319000         0.24951455     0.25994437     317.26411      267.50637      49.75774       51.837637      300.35129     -130.63742      75353.137      75927.364      28666.295      47261.069    
    320000   320000         0.24956689     0.21339272     331.05445      270.44205      60.612398      51.826764      299.02584     -213.85229      74997.867      75937.872      28539.791      47398.082    
    321000   321000         0.24960515     0.30540182     321.95671      279.60514      42.351563      51.81882       300.34915     -717.61901      72780.61       75934.962      28666.09       47268.872    
    322000   322000         0.24969758     0.22977918     326.48122      270.19133      56.289888      51.799639      299.59714      528.22067      78256.157      75934.32       28594.317      47340.003    
    323000   323000         0.24986439     0.21356197     329.26214      268.69778      60.564363      51.765057      299.20903      522.51269      78231.584      75934.837      28557.274      47377.562    
    324000   324000         0.24995584     0.32456099     310.35382      270.50232      39.851507      51.746119      300.43111     -353.0576       74377.642      75929.535      28673.914      47255.622    
    325000   325000         0.2500225      0.29121859     315.70813      271.29392      44.414212      51.732322      300.29307     -282.46389      74686.039      75927.632      28660.739      47266.893    
    326000   326000         0.25006183     0.29395825     319.67607      275.67579      44.000277      51.724184      300.5551       269.93486      77121.187      75934.667      28685.747      47248.92     
    327000   327000         0.25001022     0.30369735     317.74767      275.15841      42.589256      51.734862      300.09289     -231.01566      74921.519      75936.967      28641.633      47295.334    
    328000   328000         0.2499348      0.23489119     319.46292      264.39808      55.064833      51.750474      299.09734      182.99589      76739.18       75934.807      28546.615      47388.192    
    329000   329000         0.24984144     0.19826734     330.07273      264.83635      65.236383      51.769813      300.58844     -234.26082      74903.033      75932.745      28688.929      47243.816    
    330000   330000         0.24969873     0.20004267     325.55424      260.89681      64.657427      51.799399      300.35548     -343.25578      74423.243      75932.052      28666.695      47265.357    
    331000   331000         0.24961933     0.24588198     312.2549       259.65143      52.603467      51.815877      298.79713      5.2047628      75964.376      75941.498      28517.962      47423.536    
    332000   332000         0.24953996     0.22222171     325.67795      267.47372      58.204234      51.832357      300.50355      115.96959      76439.987      75930.234      28680.828      47249.406    
    333000   333000         0.24951304     0.23790382     326.26253      271.89499      54.367536      51.83795       299.33961      295.21408      77235.564      75937.927      28569.737      47368.19     
    334000   334000         0.24947097     0.19555649     334.4054       268.26469      66.140707      51.846692      300.38641     -517.0164       73659.415      75932.002      28669.647      47262.356    
    335000   335000         0.24946304     0.30751431     322.94323      280.8826       42.060626      51.84834       300.40126      314.85718      77315.384      75931.404      28671.064      47260.34     
    336000   336000         0.24946319     0.32625115     319.19167      279.54662      39.645054      51.848307      298.67142     -60.983527      75665.858      75933.916      28505.964      47427.952    
    337000   337000         0.24952238     0.32830548     319.48275      280.08577      39.39698       51.836009      300.38366     -572.39033      73418.015      75934.003      28669.385      47264.618    
[...]
    931000   931000         0.2423135      0.30224927     317.98832      275.19502      42.793302      53.378143      297.97538      275.16099      77151.087      75941.595      28439.533      47502.062    
    932000   932000         0.24226598     0.18381751     329.70248      259.33788      70.364592      53.388611      299.36548      242.65801      77003.15       75936.527      28572.207      47364.32     
    933000   933000         0.24222633     0.21669755     333.31227      273.62426      59.688004      53.397352      299.51004     -356.92107      74366.227      75935.103      28586.004      47349.098    
    934000   934000         0.24222363     0.21581077     332.63516      272.70189      59.933265      53.397947      300.57694      122.36591      76470.171      75932.302      28687.832      47244.47     
    935000   935000         0.24221491     0.27266905     322.99082      275.55513      47.435689      53.399868      298.50997     -367.04921      74319.723      75933.117      28490.554      47442.563    
    936000   936000         0.24218443     0.29660192     327.45741      283.84931      43.608094      53.406589      300.73701     -358.64288      74358.582      75935.026      28703.11       47231.916    
    937000   937000         0.24215257     0.19695776     337.30062      271.63048      65.670143      53.413616      299.92929     -518.35055      73650.389      75928.84       28626.018      47302.822    
    938000   938000         0.24211248     0.19397743     329.59945      262.92033      66.679122      53.42246       298.60447     -401.25769      74176.567      75940.327      28499.574      47440.753    
    939000   939000         0.24210686     0.29611191     321.23796      277.5577       43.680257      53.4237        301.19049      86.985042      76317.367      75935.017      28746.39       47188.627    
    940000   940000         0.24212002     0.23723633     323.36787      268.84736      54.520504      53.420798      300.11241     -1024.8264      71424.097      75928.805      28643.496      47285.309    
    941000   941000         0.24214793     0.31437492     322.23963      281.0969       41.142736      53.414639      299.98838      139.8064       76548.933      75934.402      28631.658      47302.745    
    942000   942000         0.24216975     0.37303965     320.65978      285.98721      34.672572      53.409826      300.21011      496.81576      78117.226      75933.432      28652.821      47280.611    
    943000   943000         0.24222317     0.34917128     322.32023      285.27753      37.042693      53.398048      300.51835      390.44766      77650.965      75934.721      28682.24       47252.481    
    944000   944000         0.24225245     0.2233041      329.34292      271.42081      57.92211       53.391593      299.70256     -176.38905      75160.673      75936.006      28604.379      47331.627    
    945000   945000         0.2422464      0.18866196     336.06694      267.50916      68.557777      53.392928      299.48633      367.75033      77552.354      75935.878      28583.741      47352.137    
    946000   946000         0.24224772     0.25956049     328.88489      279.05356      49.831331      53.392636      299.68776      642.80335      78765.021      75939.527      28602.967      47336.561    
    947000   947000         0.2422711      0.21815572     326.80978      267.52073      59.289045      53.387484      299.70257      131.51012      76509.527      75931.464      28604.38       47327.084    
    948000   948000         0.24224027     0.23097398     325.28528      269.28657      55.998707      53.394278      298.795       -823.15313      72311.54       75929.776      28517.759      47412.017    
    949000   949000         0.24224397     0.23107429     325.48983      269.51543      55.974398      53.393463      298.99031     -344.49459      74415.748      75930.001      28536.399      47393.602    
    950000   950000         0.24221557     0.26715114     316.89469      268.47923      48.415457      53.399724      298.41317     -123.52673      75398.579      75941.551      28481.316      47460.235    
    951000   951000         0.24219376     0.19645309     339.21045      273.37161      65.838844      53.404533      300.49528      285.89725      77194.708      75938.024      28680.038      47257.986    
    952000   952000         0.24218038     0.19730764     333.46322      267.90952      65.553693      53.407483      298.48497     -560.19963      73481.724      75944.127      28488.168      47455.958    
    953000   953000         0.24216733     0.19382373     336.36988      269.63788      66.731995      53.41036       300.27739     -618.72465      73211.697      75931.351      28659.242      47272.109    
    954000   954000         0.24215669     0.2426193      328.54302      275.23216      53.310864      53.412707      298.67061     -110.86705      75448.769      75936.094      28505.886      47430.207    
    955000   955000         0.24216102     0.26072287     319.45527      269.8461       49.609167      53.411752      299.00557      6.895468       75968.819      75938.509      28537.856      47400.653    
    956000   956000         0.24213678     0.22606895     332.7944       275.58069      57.213714      53.4171        300.79795     -205.10846      75029.266      75930.837      28708.926      47221.911    
    957000   957000         0.24210513     0.21131156     334.75972      273.55036      61.209356      53.424083      300.91148     -329.73272      74485.278      75934.645      28719.761      47214.885    
    958000   958000         0.24208637     0.34142101     323.73792      285.85435      37.883563      53.428222      300.69615      119.39322      76460.316      75935.514      28699.21       47236.304    
    959000   959000         0.24210426     0.29752884     319.39911      275.92688      43.472237      53.424274      299.75073     -272.9521       74736.407      75936.19       28608.976      47327.213    
    960000   960000         0.24211736     0.25079227     324.428        272.85446      51.573537      53.421383      299.137        114.93804      76441.296      75936.077      28550.4        47385.677    
    961000   961000         0.24212481     0.20442238     324.88851      261.61635      63.272156      53.419741      299.99983     -232.0288       74916.36       75936.262      28632.751      47303.511    
    962000   962000         0.24213508     0.32656751     310.51169      270.90504      39.606648      53.417475      297.59887      34.607005      76091.749      75939.631      28403.597      47536.034    
    963000   963000         0.24212431     0.25736635     318.79368      268.53752      50.256161      53.41985       300.09652     -249.96931      74832.75       75931.511      28641.979      47289.532    
    964000   964000         0.24211942     0.27629151     323.96019      277.14643      46.81376       53.420929      299.48498      230.71432      76947.248      75933.125      28583.612      47349.513    
    965000   965000         0.24211336     0.23984222     319.99046      266.06232      53.928139      53.422265      299.80874      167.04227      76673.765      75939.518      28614.513      47325.005    
    966000   966000         0.24212281     0.26729754     326.46184      278.0729       48.38894       53.42018       300.74368     -82.155813      75572.285      75933.408      28703.746      47229.662    
    967000   967000         0.24213134     0.25971668     315.19152      265.39016      49.801363      53.418298      300.02334     -429.37136      74050.948      75938.284      28634.994      47303.29     
    968000   968000         0.24212796     0.20914685     328.70469      266.86181      61.842884      53.419046      301.07279      394.03788      77664.051      75932.026      28735.157      47196.869    
    969000   969000         0.24214289     0.21043514     328.06193      266.59765      61.46428       53.415751      300.12302      184.53566      76745.163      75934.022      28644.508      47289.514    
    970000   970000         0.24218034     0.23082677     325.3502       269.31578      56.034421      53.407491      300.44841     -1054.9958      71300.309      75937.628      28675.565      47262.064    
    971000   971000         0.24220872     0.26896948     323.7872       275.69905      48.088149      53.401234      301.38264      768.5841       79311.065      75932.691      28764.729      47167.962    
    972000   972000         0.24221144     0.23449331     323.79098      268.63272      55.158266      53.400634      300.36599     -79.334594      75585.784      75934.506      28667.698      47266.808    
    973000   973000         0.24221674     0.23571646     323.93497      269.06293      54.872046      53.399465      299.92327      477.51316      78035.802      75936.854      28625.444      47311.41     
    974000   974000         0.24223362     0.24109316     327.47646      273.82813      53.648326      53.395744      298.82744      4.9199083      75954.361      75932.735      28520.855      47411.88     
    975000   975000         0.24221736     0.2169549      333.03094      273.41374      59.617203      53.399328      302.12695      252.76132      77038.656      75927.624      28835.769      47091.855    
    976000   976000         0.24219698     0.23592919     327.11728      272.29472      54.82257       53.403822      300.70748     -121.05175      75400.409      75932.502      28700.291      47232.211    
    977000   977000         0.24220104     0.34381027     322.71157      285.09127      37.620297      53.402927      299.84432     -177.86271      75153.119      75934.929      28617.909      47317.021    
    978000   978000         0.24225196     0.3104648      323.28039      281.61948      41.660904      53.391702      300.26805     -502.29533      73725.745      75933.624      28658.351      47275.274    
    979000   979000         0.24227596     0.24001485     320.42606      266.53671      53.889351      53.386412      301.62639      455.57552      77934.178      75931.659      28787.994      47143.665    
    980000   980000         0.24232008     0.33284041     309.73463      270.87443      38.860198      53.376692      298.50632     -74.769052      75609.321      75937.974      28490.206      47447.768    
    981000   981000         0.24238632     0.31223187     311.57122      270.1461       41.425125      53.362105      298.19922     -90.294494      75544.136      75941.033      28460.896      47480.137    
    982000   982000         0.24241988     0.29119847     322.99726      278.57998      44.417281      53.354719      299.59878      495.97308      78116.095      75936.005      28594.473      47341.532    
    983000   983000         0.24245398     0.2748833      324.21938      277.1658       47.053584      53.347214      300.29167      540.6073       78310.954      75934.671      28660.605      47274.066    
    984000   984000         0.24250671     0.2592941      323.0864       273.20387      49.882524      53.335614      298.54156      398.14935      77696.862      75946.764      28493.57       47453.194    
    985000   985000         0.24253588     0.26319125     320.89279      271.74889      49.1439        53.329199      298.36495      553.16242      78371.786      75940.316      28476.714      47463.603    
    986000   986000         0.24256074     0.23553341     327.16769      272.253        54.914691      53.323734      299.18183      769.1545       79316.286      75935.405      28554.679      47380.726    
    987000   987000         0.24258601     0.2629062      319.95219      270.755        49.197184      53.31818       298.1441       511.74047      78188.119      75938.723      28455.635      47483.088    
    988000   988000         0.24261163     0.2462981      325.48568      272.97109      52.514592      53.312548      299.79032     -112.20614      75441.248      75934.459      28612.755      47321.704    
    989000   989000         0.24263103     0.30899094     320.69256      278.83293      41.859623      53.308287      301.13275     -187.77103      75105.994      75931.357      28740.88       47190.477    
    990000   990000         0.24265976     0.24206426     322.77927      269.34616      53.433103      53.301974      299.43231      166.69957      76664.614      75931.873      28578.585      47353.288    
    991000   991000         0.24267234     0.23502486     323.67417      268.64066      55.033515      53.299212      299.61209      40.241348      76104.408      75927.524      28595.744      47331.779    
    992000   992000         0.24270661     0.27110473     318.29668      270.58728      47.709402      53.291686      301.04773      462.16117      77960.415      75928.949      28732.765      47196.184    
    993000   993000         0.24272995     0.23383251     325.99367      270.67953      55.314142      53.28656       301.29872     -213.5718       74992.518      75931.29       28756.72       47174.57     
    994000   994000         0.24272734     0.27272931     324.24254      276.81734      47.425208      53.287133      300.93148     -814.72877      72346.483      75927.689      28721.67       47206.019    
    995000   995000         0.24274581     0.39899584     311.17128      278.75429      32.416991      53.28308       299.37661      41.77868       76117.007      75933.366      28573.27       47360.096    
    996000   996000         0.24276512     0.2735176      316.15423      268.8657       47.288528      53.278843      298.64926      282.02138      77180.096      75940.449      28503.849      47436.6      
    997000   997000         0.24278064     0.26195209     319.43804      270.06166      49.376374      53.275436      300.64082      636.89257      78727.699      75928.187      28693.929      47234.258    
    998000   998000         0.24282595     0.30979772     322.04053      280.28992      41.750612      53.265496      298.31055     -526.48339      73618.127      75932.328      28471.521      47460.806    
    999000   999000         0.24283786     0.23800304     332.12648      277.78161      54.344871      53.262882      302.66228      536.44447      78282.915      75924.93       28886.862      47038.068    
   1000000   1000000        0.24285309     0.18148524     334.51503      263.24617      71.268852      53.259541      299.99068     -314.45223      74547.001      75929.201      28631.877      47297.324    
   1001000   1001000        0.2428791      0.24598129     326.87327      274.29104      52.582229      53.253839      299.33915      474.97722      78023.552      75935.751      28569.694      47366.057    
   1002000   1002000        0.24288944     0.23647192     329.44449      274.74774      54.696744      53.251572      300.87209      312.76191      77305.381      75930.611      28716.001      47214.61     
   1003000   1003000        0.24289753     0.29319403     321.19132      277.07636      44.114965      53.249799      299.80759     -262.04599      74777.15       75928.994      28614.403      47314.592    
   1004000   1004000        0.24292667     0.25236264     325.49764      274.24503      51.252611      53.24341       300.73676     -43.930984      75731.923      75925.026      28703.085      47221.94     
   1005000   1005000        0.24295565     0.22382751     325.2105       267.42384      57.78666       53.23706       299.06823      527.23367      78253.312      75935.814      28543.837      47391.978    
   1006000   1006000        0.24298536     0.27084739     319.54917      271.79444      47.754732      53.23055       298.58599     -187.47902      75113.352      75937.431      28497.81       47439.621    
   1007000   1007000        0.24300347     0.26943041     323.91322      275.90734      48.005881      53.226583      300.09193     -506.11408      73709.867      75934.532      28641.541      47292.991    
   1008000   1008000        0.24301614     0.25234541     324.99286      273.73675      51.256111      53.223809      299.21311     -234.38159      74902.917      75933.16       28557.665      47375.496    
   1009000   1009000        0.24303221     0.23626006     326.62538      271.87959      54.745793      53.220288      301.72798      150.7208       76593.932      75931.427      28797.69       47133.737    
   1010000   1010000        0.24305383     0.28234641     319.21885      273.40901      45.809841      53.215555      299.56268     -83.910893      75566.021      75934.859      28591.028      47343.831    
   1011000   1011000        0.24306426     0.28368112     317.37352      271.77921      45.594307      53.21327       299.49656      570.25692      78441.687      75935.077      28584.717      47350.359    
   1012000   1012000        0.24306346     0.19558338     328.33061      262.199        66.131613      53.213447      300.91835      658.58926      78828.723      75933.841      28720.417      47213.423    
   1013000   1013000        0.24305798     0.23363411     332.40429      277.04318      55.361112      53.214645      301.59023     -596.5962       73312.878      75935.265      28784.542      47150.722    
   1014000   1014000        0.2431096      0.33203986     322.51004      283.55615      38.953891      53.203346      300.57551      239.1477       76985.555      75934.362      28687.695      47246.667    
   1015000   1015000        0.24314467     0.32064039     315.88892      275.55013      40.338787      53.195673      300.2513      -375.1877       74286.904      75936.072      28656.752      47279.32     
   1016000   1016000        0.24317408     0.2936617      325.089        281.04429      44.04471       53.18924       298.4622      -78.642116      75593.352      75939.03       28485.996      47453.034    
   1017000   1017000        0.24318546     0.23674701     322.55079      267.9176       54.633189      53.186751      299.66752      508.72154      78175.162      75939.035      28601.034      47338.001    
   1018000   1018000        0.24319915     0.22458189     320.71971      263.12716      57.592552      53.183757      299.44849     -27.196046      75815.385      75934.927      28580.129      47354.798    
   1019000   1019000        0.24319606     0.19723641     333.49333      267.91596      65.577368      53.184433      299.35991      70.092204      76240.73       75932.634      28571.675      47360.958    
   1020000   1020000        0.24317376     0.19736099     326.6998       261.16383      65.535973      53.189309      300.22264      181.14333      76728.311      75932.081      28654.017      47278.064    
Loop time of 12653.2 on 32 procs for 1000000 steps with 32020 atoms

Performance: 6.828 ns/day, 3.515 hours/ns, 79.032 timesteps/s, 2.531 Matom-step/s
99.4% CPU use with 32 MPI tasks x 1 OpenMP threads

MPI task timing breakdown:
Section |  min time  |  avg time  |  max time  |%varavg| %total
---------------------------------------------------------------
Pair    | 7970.2     | 8488.8     | 8971.6     | 272.6 | 67.09
Bond    | 161.65     | 176.21     | 187.19     |  44.8 |  1.39
Kspace  | 2185.8     | 2679.9     | 3137.5     | 470.5 | 21.18
Neigh   | 542.96     | 553        | 558.2      |  16.5 |  4.37
Comm    | 482.59     | 560.11     | 679.01     | 204.1 |  4.43
Output  | 0.090663   | 0.10632    | 0.24291    |   7.9 |  0.00
Modify  | 135.93     | 168.92     | 228.35     | 222.6 |  1.33
Other   |            | 26.17      |            |       |  0.21

Nlocal:        1000.62 ave        1042 max         964 min
Histogram: 2 1 5 6 3 5 4 3 2 1
Nghost:        11930.2 ave       12030 max       11834 min
Histogram: 1 2 4 6 4 3 6 2 3 1
Neighs:         610590 ave      650827 max      586180 min
Histogram: 7 3 3 4 4 2 5 3 0 1

Total # of neighbors = 19538864
Ave neighs/atom = 610.20812
Ave special neighs/atom = 10.738289
Neighbor list builds = 40210
Dangerous builds = 0
Total wall time: 3:35:10
