units real
atom_style full
boundary p p p

# styles
pair_style lj/charmm/coul/long 8.0 12.0
kspace_style pppm 1e-6
dielectric 1.000000
bond_style harmonic
angle_style harmonic
dihedral_style fourier
improper_style cvff
special_bonds amber
pair_modify mix arithmetic
neighbor 2.0 bin
neigh_modify delay 0 every 1 check yes

# system definition
read_data ../final.data
Reading data file ...
  orthogonal box = (-33.498877 -36.417644 -30.882204) to (33.498877 36.417644 30.882204)
  4 by 4 by 2 MPI processor grid
  reading atoms ...
  32020 atoms
  reading velocities ...
  32020 velocities
  scanning bonds ...
  3 = max bonds/atom
  scanning angles ...
  6 = max angles/atom
  scanning dihedrals ...
  15 = max dihedrals/atom
  scanning impropers ...
  1 = max impropers/atom
  reading bonds ...
  32010 bonds
  reading angles ...
  60000 angles
  reading dihedrals ...
  79910 dihedrals
  reading impropers ...
  2000 impropers
Finding 1-2 1-3 1-4 neighbors ...
  special bond factors lj:    0        0        0.5     
  special bond factors coul:  0        0        0.8333333333333334
     4 = max # of 1-2 neighbors
     8 = max # of 1-3 neighbors
    17 = max # of 1-4 neighbors
    20 = max # of special neighbors
  special bonds CPU = 0.076 seconds
  read_data CPU = 0.519 seconds
# do not reset velocities

# vars
variable tLog equal 1000
variable nEvery equal 10
variable nRepeat equal 100
variable boolDump equal 0
variable tDump equal 1000

variable tPreeq equal 10000
variable tPrerun equal 10000
variable tTCrun equal 1000000

variable diffT_delay equal ${tPreeq}+${tPreeq}
variable diffT_delay equal 10000+${tPreeq}
variable diffT_delay equal 10000+10000
# heatflux of 0.05 give good results over 1 ns
variable heat_flux equal 0.05
variable heat_flux_neg equal -1*v_heat_flux

# defining region
variable hot_lo equal (ly*0)+ylo
variable hot_hi equal (ly*0.05)+ylo
variable cold_lo equal (ly*0.50)+ylo
variable cold_hi equal (ly*0.55)+ylo

print "DEBUG: ${hot_lo} ${hot_hi} ${cold_lo} ${cold_hi}"
DEBUG: -36.4176435806472 -32.7758792225825 0 3.64176435806472

# define heating and cooling block regions
region hot block INF INF ${hot_lo} ${hot_hi} INF INF units box
region hot block INF INF -36.4176435806472 ${hot_hi} INF INF units box
region hot block INF INF -36.4176435806472 -32.7758792225825 INF INF units box
region cold block INF INF ${cold_lo} ${cold_hi} INF INF units box
region cold block INF INF 0 ${cold_hi} INF INF units box
region cold block INF INF 0 3.64176435806472 INF INF units box
compute Thot all temp/region hot
compute Tcold all temp/region cold

# STEP 1 - 1st equilibration (nve)
# 1a - thermo output for md2
thermo_style custom step time temp c_Thot c_Tcold press enthalpy etotal ke pe
thermo_modify colname c_Thot Temp_hot colname c_Tcold Temp_cold
thermo_modify flush yes
thermo ${tLog}
thermo 1000

# 1b - nve equilibration
timestep 1.0
fix md2 all nve
run ${tPreeq}
run 10000
PPPM initialization ...
  using 12-bit tables for long-range coulomb (src/kspace.cpp:342)
  G vector (1/distance) = 0.25627571
  grid = 50 54 48
  stencil order = 5
  estimated absolute RMS force accuracy = 0.0003553538
  estimated relative force accuracy = 1.0701374e-06
  using double precision FFTW3
  3d grid and FFT values/proc = 11780 5400
Generated 21 of 21 mixed pair_coeff terms from arithmetic mixing rule
Neighbor list info ...
  update: every = 1 steps, delay = 0 steps, check = yes
  max neighbors/atom: 2000, page size: 100000
  master list distance cutoff = 14
  ghost atom cutoff = 14
  binsize = 7, bins = 10 11 9
  1 neighbor lists, perpetual/occasional/extra = 1 0 0
  (1) pair lj/charmm/coul/long, perpetual
      attributes: half, newton on
      pair build: half/bin/newton
      stencil: half/bin/3d
      bin: standard
Per MPI rank memory allocation (min/avg/max) = 18.05 | 18.48 | 18.65 Mbytes
   Step          Time           Temp         Temp_hot      Temp_cold        Press         Enthalpy        TotEng         KinEng         PotEng    
         0   0              299.59509      302.99249      304.36877     -425.02464      74065.257      75933.487      28594.121      47339.366    
      1000   1000           299.5365       299.63759      302.81389     -145.70453      75292.33       75932.786      28588.53       47344.256    
      2000   2000           300.82871      296.0911       303.78413     -247.70987      74839.656      75928.485      28711.861      47216.624    
      3000   3000           299.47904      303.54232      295.8101      -120.79335      75402.199      75933.156      28583.045      47350.111    
      4000   4000           299.32509      296.7159       301.03794     -164.86832      75206.849      75931.541      28568.352      47363.189    
      5000   5000           299.69758      298.45527      304.78971     -533.45169      73593.521      75938.351      28603.903      47334.447    
      6000   6000           300.68017      301.51445      296.15735      162.94041      76650.712      75934.495      28697.685      47236.81     
      7000   7000           299.94173      313.64113      293.19648     -353.84218      74380.892      75936.234      28627.205      47309.029    
      8000   8000           299.58768      305.03962      300.79547     -122.47968      75399.675      75938.044      28593.414      47344.631    
      9000   9000           299.95163      301.50964      293.39556     -914.05271      71916.831      75934.623      28628.151      47306.472    
     10000   10000          298.38727      286.66859      304.65504      115.06575      76444.356      75938.575      28478.844      47459.731    
Loop time of 127.388 on 32 procs for 10000 steps with 32020 atoms

Performance: 6.782 ns/day, 3.539 hours/ns, 78.500 timesteps/s, 2.514 Matom-step/s
99.5% CPU use with 32 MPI tasks x 1 OpenMP threads

MPI task timing breakdown:
Section |  min time  |  avg time  |  max time  |%varavg| %total
---------------------------------------------------------------
Pair    | 79.849     | 85.691     | 92.22      |  31.3 | 67.27
Bond    | 1.6521     | 1.7596     | 1.8819     |   4.4 |  1.38
Kspace  | 21.14      | 27.815     | 33.643     |  53.7 | 21.84
Neigh   | 5.417      | 5.4595     | 5.4961     |   0.9 |  4.29
Comm    | 4.7415     | 5.4783     | 6.1734     |  16.1 |  4.30
Output  | 0.0011954  | 0.001811   | 0.0032889  |   1.1 |  0.00
Modify  | 0.051073   | 0.056246   | 0.060335   |   1.0 |  0.04
Other   |            | 1.126      |            |       |  0.88

Nlocal:        1000.62 ave        1034 max         962 min
Histogram: 1 0 5 4 6 4 3 2 4 3
Nghost:        11941.5 ave       12021 max       11869 min
Histogram: 2 0 7 4 6 2 6 2 2 1
Neighs:         610609 ave      642185 max      565613 min
Histogram: 1 0 4 3 3 5 5 5 4 2

Total # of neighbors = 19539500
Ave neighs/atom = 610.22798
Ave special neighs/atom = 10.738289
Neighbor list builds = 400
Dangerous builds = 0
unfix md2

# STEP 2 - MD for thermal conductivity
# 2a - impose nve
fix md3 all nve

# 2b - impose heat flux
fix hot all ehex 1 ${heat_flux} region hot
fix hot all ehex 1 0.05 region hot
fix cold all ehex 1 ${heat_flux_neg} region cold
fix cold all ehex 1 -0.05 region cold

# 2c - calculate thermal profile
compute ke all ke/atom
variable temp atom c_ke/(1.5*0.001987204)

compute layers all chunk/atom bin/1d y lower 0.05 units reduced
fix bins all ave/chunk ${nEvery} ${nRepeat} ${tLog} layers v_temp file Tprofile_y_ehex.dat
fix bins all ave/chunk 10 ${nRepeat} ${tLog} layers v_temp file Tprofile_y_ehex.dat
fix bins all ave/chunk 10 100 ${tLog} layers v_temp file Tprofile_y_ehex.dat
fix bins all ave/chunk 10 100 1000 layers v_temp file Tprofile_y_ehex.dat

variable tdiff equal c_Thot-c_Tcold
fix ave all ave/time ${nEvery} ${nRepeat} ${tLog} v_tdiff ave running start ${diffT_delay}
fix ave all ave/time 10 ${nRepeat} ${tLog} v_tdiff ave running start ${diffT_delay}
fix ave all ave/time 10 100 ${tLog} v_tdiff ave running start ${diffT_delay}
fix ave all ave/time 10 100 1000 v_tdiff ave running start ${diffT_delay}
fix ave all ave/time 10 100 1000 v_tdiff ave running start 20000

# pre define kappa
variable kappa_inst equal 0
variable kappa equal 0

# 2d - thermo out
# dump dump_tc all custom 1000 dump.tc_x_ehex.lammpstrj id type mol x y z ix iy iz vx vy vz
thermo_style custom step time v_kappa v_kappa_inst c_Thot c_Tcold v_tdiff f_ave temp press enthalpy etotal ke pe
WARNING: New thermo_style command, previous thermo_modify settings will be lost (src/output.cpp:904)
thermo_modify colname v_kappa kappa colname v_kappa_inst kappa_inst colname c_Thot Temp_hot colname c_Tcold Temp_cold colname v_tdiff dTemp_step colname f_ave dTemp
thermo_modify flush yes
thermo ${tLog}
thermo 1000

# 2e - prerun
run ${tPrerun}
run 10000
PPPM initialization ...
  using 12-bit tables for long-range coulomb (src/kspace.cpp:342)
  G vector (1/distance) = 0.25627571
  grid = 50 54 48
  stencil order = 5
  estimated absolute RMS force accuracy = 0.0003553538
  estimated relative force accuracy = 1.0701374e-06
  using double precision FFTW3
  3d grid and FFT values/proc = 11780 5400
Generated 21 of 21 mixed pair_coeff terms from arithmetic mixing rule
Per MPI rank memory allocation (min/avg/max) = 18.93 | 19.07 | 19.15 Mbytes
   Step          Time          kappa        kappa_inst      Temp_hot      Temp_cold      dTemp_step       dTemp           Temp          Press         Enthalpy        TotEng         KinEng         PotEng    
     10000   10000          0              0              287.44855      304.65504     -17.206491      0              298.38727      115.06575      76444.356      75938.575      28478.844      47459.731    
     11000   11000          0              0              304.98177      305.48866     -0.50688945     0              300.12456     -65.524518      75641.452      75929.47       28644.655      47284.815    
     12000   12000          0              0              306.2195       288.5171       17.7024        0              298.80755     -426.42673      74061.214      75935.607      28518.957      47416.65     
     13000   13000          0              0              308.27897      289.35441      18.924562      0              297.84091      8.8708484      75973.913      75934.921      28426.698      47508.223    
     14000   14000          0              0              311.98238      295.23092      16.751457      0              300.00943      163.88944      76654.181      75933.792      28633.667      47300.125    
     15000   15000          0              0              312.42475      286.46447      25.960285      0              300.54004     -399.0534       74179.651      75933.722      28684.31       47249.412    
     16000   16000          0              0              304.19084      284.21753      19.97331       0              299.29838      204.314        76834.152      75936.073      28565.803      47370.27     
     17000   17000          0              0              317.0476       292.33116      24.716446      0              299.16282      264.50845      77100.853      75938.185      28552.865      47385.32     
     18000   18000          0              0              312.79745      285.23176      27.56569       0              299.80876      5.893013       75953.241      75927.338      28614.514      47312.824    
     19000   19000          0              0              305.6472       286.8615       18.785702      0              299.60871      6.777813       75962.619      75932.826      28595.421      47337.405    
     20000   20000          0              0              323.26952      285.95451      37.315012      26.134139      300.28519      236.27713      76967.02       75928.445      28659.986      47268.459    
Loop time of 126.284 on 32 procs for 10000 steps with 32020 atoms

Performance: 6.842 ns/day, 3.508 hours/ns, 79.187 timesteps/s, 2.536 Matom-step/s
99.5% CPU use with 32 MPI tasks x 1 OpenMP threads

MPI task timing breakdown:
Section |  min time  |  avg time  |  max time  |%varavg| %total
---------------------------------------------------------------
Pair    | 79.379     | 84.831     | 90.03      |  29.5 | 67.17
Bond    | 1.6414     | 1.7627     | 1.8911     |   4.5 |  1.40
Kspace  | 21.838     | 27.061     | 32.118     |  51.0 | 21.43
Neigh   | 5.3776     | 5.4272     | 5.4715     |   0.9 |  4.30
Comm    | 4.7352     | 5.4178     | 6.1136     |  17.5 |  4.29
Output  | 0.0014288  | 0.0014996  | 0.0022573  |   0.4 |  0.00
Modify  | 1.0105     | 1.5076     | 1.8994     |  22.3 |  1.19
Other   |            | 0.2747     |            |       |  0.22

Nlocal:        1000.62 ave        1038 max         953 min
Histogram: 3 0 2 3 6 3 3 5 1 6
Nghost:        11936.4 ave       11989 max       11873 min
Histogram: 1 2 2 6 7 1 3 3 2 5
Neighs:         610621 ave      638869 max      563885 min
Histogram: 2 1 1 1 3 5 5 6 3 5

Total # of neighbors = 19539869
Ave neighs/atom = 610.23951
Ave special neighs/atom = 10.738289
Neighbor list builds = 396
Dangerous builds = 0

# 2f - calc kappa
variable kappa_inst equal (${heat_flux}/(lx*lz)/2.0)*(ly/2.0)/v_tdiff*69478.5785
variable kappa_inst equal (0.05/(lx*lz)/2.0)*(ly/2.0)/v_tdiff*69478.5785
variable kappa equal (${heat_flux}/(lx*lz)/2.0)*(ly/2.0)/f_ave*69478.5785
variable kappa equal (0.05/(lx*lz)/2.0)*(ly/2.0)/f_ave*69478.5785

# 2g - md run for kappa calculation
# optional traj dump
if "${boolDump} == 1" then     "dump tc_dump all atom ${tDump} dump.tc_y.lammpstrj"
run ${tTCrun}
run 1000000
PPPM initialization ...
  using 12-bit tables for long-range coulomb (src/kspace.cpp:342)
  G vector (1/distance) = 0.25627571
  grid = 50 54 48
  stencil order = 5
  estimated absolute RMS force accuracy = 0.0003553538
  estimated relative force accuracy = 1.0701374e-06
  using double precision FFTW3
  3d grid and FFT values/proc = 11780 5400
Generated 21 of 21 mixed pair_coeff terms from arithmetic mixing rule
Per MPI rank memory allocation (min/avg/max) = 19.18 | 19.33 | 19.41 Mbytes
   Step          Time          kappa        kappa_inst      Temp_hot      Temp_cold      dTemp_step       dTemp           Temp          Press         Enthalpy        TotEng         KinEng         PotEng    
     20000   20000          0.58491944     0.40804862     323.41663      285.95451      37.462118      26.134139      300.28519      236.27723      76967.021      75928.445      28659.986      47268.459    
     21000   21000          0.52977304     0.52261395     321.90412      292.6543       29.249823      28.854556      301.08908     -218.63611      74970.077      75931.11       28736.712      47194.398    
     22000   22000          0.50913534     0.58245767     312.68168      286.43708      26.244595      30.024169      298.23175      444.59657      77894.334      75940.074      28464.001      47476.073    
     23000   23000          0.4967879      0.46333801     318.79526      285.80344      32.991823      30.770406      300.22677     -244.3488       74856.738      75930.793      28654.411      47276.382    
     24000   24000          0.47609979     0.63667501     311.45545      287.44577      24.009684      32.107482      300.12815      549.1258       78346.896      75933.17       28644.998      47288.171    
     25000   25000          0.45643031     0.3675744      319.89375      278.30662      41.587134      33.491127      299.09196     -234.16759      74906.071      75935.373      28546.102      47389.271    
     26000   26000          0.4383747      0.44936473     316.28317      282.26545      34.017724      34.870547      299.2266      -45.40327       75736.596      75936.169      28558.951      47377.218    
     27000   27000          0.42258433     0.36568608     317.1491       275.34722      41.80188       36.173527      298.69674      447.90759      77906.655      75937.841      28508.381      47429.461    
     28000   28000          0.4130088      0.37160674     322.26942      281.13356      41.135868      37.012203      299.73407     -546.99556      73524.236      75928.6        28607.386      47321.214    
     29000   29000          0.40770857     0.5021912      320.92848      290.48915      30.439334      37.493364      299.21559      376.57566      77591.437      75936.168      28557.901      47378.268    
     30000   30000          0.40107623     0.39747823     314.88548      276.42711      38.458372      38.113367      298.80721     -511.87041      73690.89       75940.858      28518.924      47421.934    
     31000   31000          0.39624118     0.45784162     311.52838      278.14049      33.38789       38.578438      299.91237     -152.3437       75265.099      75934.738      28624.403      47310.334    
     32000   32000          0.39169956     0.29647017     330.27106      278.70984      51.561227      39.025741      299.99331     -508.06774      73703.609      75936.862      28632.128      47304.734    
     33000   33000          0.38988662     0.31588127     320.17937      271.78661      48.392758      39.207207      297.42989     -73.291003      75620.867      75943.024      28387.469      47555.555    
     34000   34000          0.38768208     0.31788676     328.74979      280.66234      48.087456      39.430158      298.86563     -422.92594      74077.3        75936.306      28524.5        47411.805    
     35000   35000          0.38410724     0.46466016     319.40792      286.50997      32.897948      39.79713       298.82751     -370.70819      74308.829      75938.307      28520.862      47417.445    
     36000   36000          0.383344       0.3395096      322.57024      277.5454       45.024841      39.876366      299.53046     -363.165        74335.32       75931.641      28587.953      47343.687    
     37000   37000          0.38269143     0.3105106      325.58206      276.35229      49.229771      39.944363      298.2931       11.172773      75982.709      75933.598      28469.856      47463.742    
     38000   38000          0.37769385     0.32980787     317.08727      270.73796      46.349305      40.4729        299.66308      185.54263      76746.61       75931.043      28600.611      47330.432    
     39000   39000          0.37439089     0.32984687     318.41643      272.0726       46.343825      40.829961      298.80611      422.82389      77799.792      75941.236      28518.82       47422.416    
     40000   40000          0.37246628     0.31195046     329.4626       280.46006      49.002543      41.040938      301.08637      123.99417      76478.296      75933.269      28736.453      47196.816    
     41000   41000          0.36967904     0.33599216     323.86908      278.37288      45.496197      41.350372      300.30792      19.859095      76019.248      75931.955      28662.156      47269.799    
     42000   42000          0.36500116     0.40501218     311.3582       273.61522      37.742978      41.88032       299.13879      8.6595413      75966.932      75928.868      28550.571      47378.297    
     43000   43000          0.36258111     0.36697703     319.80484      278.15001      41.65483       42.159851      300.16138      598.56448      78556.513      75925.475      28648.17       47277.305    
     44000   44000          0.35967939     0.31637185     322.93197      274.61425      48.317718      42.499976      300.15752     -710.36153      72808.564      75931.015      28647.801      47283.214    
     45000   45000          0.35720067     0.30624722     325.48064      275.56553      49.915116      42.794896      300.12223     -589.287        73337.502      75927.76       28644.433      47283.327    
     46000   46000          0.35439021     0.34188878     323.04331      278.33179      44.711515      43.134278      299.9858      -248.55402      74842.172      75934.711      28631.412      47303.299    
     47000   47000          0.35166909     0.23158697     334.09795      268.09093      66.00702       43.468039      300.38894      1084.7716      80696.421      75928.219      28669.889      47258.33     
     48000   48000          0.34892381     0.29874332     325.58878      274.41989      51.168896      43.810039      299.76767      38.596324      76100.791      75931.138      28610.593      47320.544    
     49000   49000          0.34716235     0.29405172     313.37156      261.38627      51.985295      44.032326      300.03332      262.008        77085.386      75933.709      28635.947      47297.762    
     50000   50000          0.34448942     0.31352003     319.04389      270.28667      48.757222      44.373978      299.87824      405.70663      77721.837      75938.521      28621.146      47317.375    
     51000   51000          0.34128586     0.2281914      337.1043       270.11507      66.989227      44.790504      300.14829      174.45014      76695.904      75929.095      28646.92       47282.174    
     52000   52000          0.33910415     0.31653783     327.64575      279.35337      48.292382      45.078675      301.02513     -419.36491      74086.051      75929.403      28730.608      47198.795    
     53000   53000          0.33740865     0.29869399     328.96391      277.78656      51.177346      45.305198      297.9          354.15025      77498.07       75941.374      28432.338      47509.036    
     54000   54000          0.33561638     0.315202       328.55636      280.05931      48.497046      45.547138      298.97707      175.04932      76706.674      75937.231      28535.136      47402.095    
     55000   55000          0.33322826     0.27886699     336.12905      281.31308      54.815973      45.873558      298.91937     -428.86596      74056.436      75941.551      28529.629      47411.921    
     56000   56000          0.33077983     0.31666904     323.27112      274.99875      48.272372      46.213113      298.72099     -689.53791      72904.32       75935.24       28510.695      47424.545    
     57000   57000          0.32880259     0.24975085     333.47036      272.26389      61.206462      46.491014      297.60784     -316.06404      74548.326      75937.611      28404.454      47533.158    
     58000   58000          0.32724851     0.33805711     322.03448      276.81619      45.218293      46.711796      299.01841     -76.798907      75600.06       75937.635      28539.081      47398.554    
     59000   59000          0.32587015     0.24255637     327.66533      264.64342      63.02191       46.909377      300.85138     -401.84815      74165.706      75932.062      28714.025      47218.037    
     60000   60000          0.32476092     0.25351706     318.51363      258.21644      60.297188      47.069597      298.45923      107.51344      76403.412      75930.828      28485.712      47445.116    
     61000   61000          0.32335415     0.26151699     329.41953      270.96686      58.452669      47.274376      298.86645      253.2614       77051.6        75938.369      28524.578      47413.791    
     62000   62000          0.32229015     0.41774119     322.15505      285.56214      36.59291       47.430446      299.61901      396.80121      77675.66       75931.489      28596.404      47335.084    
     63000   63000          0.32124752     0.25069777     330.63198      269.65671      60.975276      47.584385      301.56878      94.923226      76343.01       75925.767      28782.495      47143.272    
     64000   64000          0.31972423     0.27873538     324.40962      269.56776      54.841856      47.811096      300.11903      288.02477      77200.991      75934.955      28644.128      47290.827    
     65000   65000          0.31846159     0.24942802     325.49689      264.21121      61.285679      48.000657      299.96172     -801.47989      72410.665      75933.634      28629.114      47304.52     
     66000   66000          0.31662974     0.28677449     322.4203       269.11581      53.304482      48.278363      297.58663      67.089735      76232.663      75937.764      28402.429      47535.335    
     67000   67000          0.31563734     0.26209706     324.39476      266.07146      58.3233        48.430157      300.26301      374.65673      77577.591      75930.757      28657.869      47272.888    
     68000   68000          0.3146869      0.3387052      312.96231      267.83054      45.131772      48.576429      298.76519     -363.41169      74340.587      75937.992      28514.914      47423.078    
     69000   69000          0.31401809     0.28060094     327.18078      272.70354      54.477243      48.679889      300.30728      476.41544      78019.735      75925.613      28662.094      47263.519    
     70000   70000          0.31341914     0.25252156     335.42161      274.88671      60.534894      48.772917      299.94723      403.09521      77695.778      75923.94       28627.731      47296.209    
     71000   71000          0.31181049     0.27849531     329.20163      274.3125       54.889132      49.024539      301.62375     -275.1245       74714.688      75924.02       28787.742      47136.278    
     72000   72000          0.31117003     0.31781646     327.19923      279.10114      48.098093      49.125444      299.60784      56.672936      76184.794      75935.684      28595.339      47340.345    
     73000   73000          0.31029309     0.23081504     335.51243      269.28466      66.22777       49.264279      300.75587      761.84172      79273.486      75924.749      28704.909      47219.84     
     74000   74000          0.30965046     0.27650421     326.68866      271.40427      55.284387      49.36652       300.78069      216.52041      76879.208      75927.475      28707.279      47220.196    
     75000   75000          0.30925408     0.23777702     334.96053      270.67187      64.28866       49.429795      300.20868      464.14669      77974.159      75933.965      28652.684      47281.281    
     76000   76000          0.30862255     0.31035825     324.84638      275.59245      49.253937      49.530943      299.37675     -908.16331      71946.687      75938.592      28573.282      47365.31     
     77000   77000          0.30783184     0.27114448     330.98902      274.61182      56.377197      49.65817       299.36215     -710.58756      72808.573      75932.018      28571.889      47360.128    
     78000   78000          0.30734218     0.23049285     332.87322      266.55287      66.320347      49.737285      299.31045      546.99602      78335.425      75931.06       28566.955      47364.105    
     79000   79000          0.30647982     0.31818387     322.37483      274.33228      48.042554      49.877234      300.44122     -176.93773      75158.758      75936.502      28674.878      47261.624    
     80000   80000          0.30578523     0.34762075     321.61163      277.63737      43.974261      49.99053       299.25771     -96.692164      75511.944      75936.962      28561.921      47375.041    
     81000   81000          0.30482717     0.23049275     332.05186      265.73148      66.320375      50.147649      299.90768      159.35759      76634.502      75934.033      28623.956      47310.077    
     82000   82000          0.30373431     0.24772279     339.82271      278.11517      61.707546      50.328083      300.3094      -236.35777      74893.063      75931.992      28662.297      47269.695    
     83000   83000          0.30283385     0.21530149     329.45156      258.45174      70.999813      50.477731      298.89038      268.45626      77115.374      75935.353      28526.863      47408.49     
     84000   84000          0.3021702      0.26437723     323.40069      265.58041      57.82028       50.588594      299.47568      610.83803      78615.019      75930.031      28582.725      47347.306    
     85000   85000          0.30180299     0.28264234     331.86666      277.78288      54.083777      50.650146      299.73973      257.36932      77065.009      75933.721      28607.926      47325.795    
     86000   86000          0.30155072     0.32775292     325.01379      278.37389      46.639906      50.692519      298.06302      149.06267      76590.801      75935.584      28447.897      47487.687    
     87000   87000          0.30099733     0.29967322     325.23041      274.22029      51.010115      50.785719      298.74497     -634.447        73145.75       75934.513      28512.984      47421.529    
     88000   88000          0.30034904     0.29520665     326.13081      274.3489       51.781914      50.895337      298.80875      70.215554      76244.455      75935.817      28519.071      47416.746    
     89000   89000          0.29975532     0.22520237     336.66191      268.78356      67.878352      50.996144      299.7899      -253.65905      74818.224      75933.203      28612.714      47320.488    
     90000   90000          0.29953862     0.28236056     332.36941      278.23166      54.137752      51.033037      301.66963      25.53034       76042.939      75930.719      28792.121      47138.598    
     91000   91000          0.29910557     0.28964203     318.98959      266.21284      52.776752      51.106924      299.82872      331.33086      77393.917      75937.526      28616.42       47321.106    
     92000   92000          0.29846237     0.2738555      327.08428      271.26519      55.819094      51.217062      299.51521      310.74309      77301.617      75935.72       28586.498      47349.223    
     93000   93000          0.29794104     0.25139254     327.62803      266.82127      60.80676       51.306681      298.79736     -112.33703      75441.94       75935.726      28517.984      47417.742    
     94000   94000          0.29755566     0.25642941     327.10332      267.49094      59.612374      51.37313       299.7997      -70.13405       75620.875      75929.155      28613.65       47315.505    
     95000   95000          0.29727273     0.27313534     324.18036      268.2141       55.966268      51.422024      299.68246      591.89786      78535.831      75934.096      28602.461      47331.636    
     96000   96000          0.29689513     0.26011699     325.40627      266.639        58.767272      51.487425      300.09474      616.18613      78642.149      75933.653      28641.809      47291.844    
     97000   97000          0.29659334     0.282166       326.39169      272.21661      54.17508       51.539814      298.95309      353.91336      77493.438      75937.783      28532.848      47404.936    
     98000   98000          0.29645464     0.2839943      321.69107      267.86476      53.826311      51.563928      299.57447     -318.15257      74533.915      75932.38       28592.153      47340.227    
     99000   99000          0.29613233     0.24631622     328.23653      266.17661      62.059923      51.62005       298.51059     -831.35855      72280.862      75935.165      28490.614      47444.551    
    100000   100000         0.29582392     0.25939238     325.45771      266.52627      58.931438      51.673867      300.75737     -60.554166      75660.077      75926.247      28705.053      47221.195    
    101000   101000         0.29530034     0.2428945      334.47084      271.53666      62.934178      51.765487      300.11589      10.497175      75980.445      75934.304      28643.828      47290.476    
    102000   102000         0.29457156     0.27668261     328.36281      273.11407      55.24874       51.893556      300.42725     -352.29819      74385.058      75933.614      28673.545      47260.069    
    103000   103000         0.29389275     0.22779779     336.08824      268.98326      67.104979      52.013415      299.31381     -110.86067      75447.803      75935.1        28567.276      47367.824    
    104000   104000         0.29353913     0.25551725     324.36047      264.53529      59.825181      52.076075      299.82218     -126.15287      75373.757      75928.273      28615.795      47312.477    
    105000   105000         0.29312811     0.29600961     326.06358      274.42213      51.641451      52.149095      299.51488     -268.4095       74756.481      75936.297      28586.466      47349.83     
    106000   106000         0.29267304     0.21192553     333.75982      261.62898      72.130837      52.230181      300.73171      722.4464       79105.711      75930.139      28702.603      47227.536    
    107000   107000         0.29229428     0.28280975     316.63147      262.5797       54.051764      52.297861      298.88979     -147.79784      75278.599      75928.256      28526.806      47401.45     
    108000   108000         0.29216719     0.25368712     328.32735      268.07058      60.256767      52.320611      299.75678      738.19343      79177.031      75932.243      28609.554      47322.689    
    109000   109000         0.29190209     0.28703261     324.07843      270.82188      53.256546      52.368127      300.21664      482.31184      78052.716      75932.675      28653.444      47279.231    
    110000   110000         0.29163173     0.25190161     334.34869      273.66482      60.683876      52.416675      301.66106      146.44266      76571.199      75927.499      28791.303      47136.196    
    111000   111000         0.29086493     0.20471418     334.00175      259.33         74.671747      52.55486       298.39914     -113.90742      75428.647      75929.336      28479.977      47449.359    
    112000   112000         0.29024105     0.28110479     324.29152      269.91193      54.379598      52.667827      299.17766      407.27096      77725.2        75935.008      28554.281      47380.727    
    113000   113000         0.28972715     0.28058091     326.97812      272.49698      54.481133      52.761247      300.06999      195.78534      76787.356      75926.766      28639.447      47287.319    
    114000   114000         0.28937872     0.27359533     328.01498      272.14281      55.872174      52.824774      300.07566     -110.06188      75446.167      75929.953      28639.989      47289.964    
    115000   115000         0.28907858     0.33872719     323.79867      278.66983      45.128841      52.87962       299.67363      568.26655      78433.208      75935.347      28601.618      47333.729    
    116000   116000         0.28883924     0.25072869     333.41066      272.44291      60.967757      52.923438      299.74375     -301.11064      74611.91       75935.466      28608.31       47327.157    
    117000   117000         0.28838418     0.22936377     338.63496      271.98814      66.646818      53.006949      299.17653     -316.96419      74539.829      75933.071      28554.173      47378.898    
    118000   118000         0.28777882     0.24794413     335.85876      274.2063       61.652459      53.118452      299.56189      53.946628      76172.72       75935.593      28590.952      47344.641    
    119000   119000         0.2873658      0.25572339     338.06834      278.29138      59.776956      53.194799      300.50477      427.07041      77806.764      75929.542      28680.943      47248.598    
    120000   120000         0.28662063     0.20264427     350.4848       275.05032      75.434483      53.333096      297.65079     -347.10984      74410.449      75936.199      28408.553      47527.646    
    121000   121000         0.2858502      0.23202222     347.80064      281.91744      65.883197      53.476841      300.47769     -297.01078      74630.178      75935.713      28678.359      47257.354    
    122000   122000         0.28554099     0.23819289     333.08336      268.90695      64.176413      53.53475       298.70188      18.161271      76016.481      75936.652      28508.871      47427.781    
    123000   123000         0.28499147     0.21258198     341.70971      269.80161      71.908099      53.637977      300.54894      125.95522      76486.404      75932.757      28685.159      47247.598    
    124000   124000         0.2845992      0.30893913     330.84144      281.36125      49.480187      53.711907      299.48942      59.991139      76200.612      75936.917      28584.036      47352.881    
    125000   125000         0.28444811     0.27460996     336.28374      280.618        55.665737      53.740436      300.41201     -464.79152      73893.59       75936.619      28672.09       47264.529    
    126000   126000         0.28428034     0.2197647      336.70958      267.1517       69.557876      53.772153      299.29569      364.46564      77534.854      75932.815      28565.546      47367.269    
    127000   127000         0.28377576     0.21026113     347.34351      274.6417       72.701815      53.867764      300.84927      151.36916      76597.583      75932.228      28713.824      47218.404    
    128000   128000         0.28328457     0.21711138     333.49749      263.08955      70.407944      53.961165      299.56916      251.01483      77032.078      75928.722      28591.647      47337.075    
    129000   129000         0.28261921     0.2211338      341.47312      272.3459       69.127224      54.088204      300.61834     -296.40401      74627.938      75930.806      28691.783      47239.023    
    130000   130000         0.28192765     0.22641151     334.90941      267.39356      67.51585       54.220882      299.84161      479.54447      78043.523      75935.646      28617.65       47317.997    
    131000   131000         0.28150944     0.26686568     328.3566       271.07548      57.281123      54.301431      299.81339     -55.486388      75690.894      75934.789      28614.957      47319.832    
    132000   132000         0.28129591     0.25401122     333.07507      272.89519      60.179883      54.342652      299.8464       377.40192      77593.28       75934.379      28618.108      47316.272    
    133000   133000         0.28086879     0.26388981     329.78718      271.8601       57.927078      54.42529       299.99216      351.23813      77480.445      75936.55       28632.019      47304.531    
    134000   134000         0.28038862     0.22970138     327.92719      261.37833      66.548862      54.518495      299.55648      79.046727      76285.767      75938.311      28590.436      47347.874    
    135000   135000         0.27978877     0.20993379     342.62437      269.80919      72.815175      54.63538       299.77247     -123.507        75397.934      75940.819      28611.051      47329.768    
    136000   136000         0.27921507     0.23567121     335.47305      270.60994      64.863102      54.747639      299.3849       590.83854      78528.698      75931.62       28574.061      47357.559    
    137000   137000         0.27871145     0.21675885     333.35976      262.8373       70.522452      54.846565      299.34524      66.881802      76228.876      75934.892      28570.275      47364.616    
    138000   138000         0.27809404     0.21873147     335.95241      266.06596      69.886448      54.968333      301.38225     -165.95169      75201.677      75931.131      28764.692      47166.439    
    139000   139000         0.2776361      0.28572438     334.93574      281.43535      53.500389      55.058998      299.31425      706.61113      79046.523      75940.557      28567.318      47373.239    
    140000   140000         0.27726117     0.21397427     334.73316      263.29295      71.440204      55.133453      299.82227      106.74818      76398.346      75929.126      28615.804      47313.322    
    141000   141000         0.27692318     0.21031437     335.15854      262.47513      72.68341       55.200745      299.26465     -321.86258      74520.918      75935.691      28562.583      47373.107    
    142000   142000         0.27656748     0.27369051     325.42144      269.5687       55.852742      55.27174       301.6878       219.5856       76890.787      75925.581      28793.855      47131.726    
    143000   143000         0.27621968     0.20566475     336.03315      261.70653      74.326621      55.341334      299.01946      238.57603      76974.517      75925.836      28539.182      47386.655    
    144000   144000         0.27575108     0.21080772     331.35873      258.84542      72.51331       55.435378      301.40687      245.74976      77008.521      75928.308      28767.042      47161.266    
    145000   145000         0.27546929     0.26198713     330.93906      272.59128      58.347774      55.492085      300.72542     -84.003147      75561.525      75930.767      28702.003      47228.764    
    146000   146000         0.2753842      0.3411772      321.47731      276.67254      44.804769      55.509233      298.04584     -132.21004      75356.684      75937.824      28446.257      47491.567    
    147000   147000         0.27538266     0.2222385      340.66245      271.87884      68.783606      55.509544      299.93723      453.0985       77921.606      75929.975      28626.776      47303.199    
    148000   148000         0.27530901     0.24987617     335.67407      274.49831      61.175765      55.524394      299.52078     -284.12105      74682.702      75931.579      28587.029      47344.55     
    149000   149000         0.27514765     0.31919315     324.16955      276.2789       47.890644      55.556955      301.37715     -88.144475      75542.615      75930.061      28764.206      47165.855    
    150000   150000         0.27498747     0.26046746     333.10073      274.41253      58.688198      55.589316      298.19261     -53.882544      75693.543      75930.388      28460.265      47470.123    
    151000   151000         0.27487851     0.24044745     330.82847      267.2538       63.574664      55.611353      298.3314       228.11839      76939.496      75936.784      28473.512      47463.272    
    152000   152000         0.27490923     0.32105765     322.44613      274.8336       47.612525      55.605137      299.90213     -237.32507      74888.267      75931.448      28623.426      47308.022    
    153000   153000         0.27495521     0.31946768     327.99872      280.14923      47.84949       55.59584       299.10454     -568.15248      73436.896      75934.256      28547.302      47386.954    
    154000   154000         0.27484635     0.24249091     331.8887       268.84978      63.038922      55.61786       299.32498      427.04412      77813.613      75936.506      28568.342      47368.164    
    155000   155000         0.27458661     0.27036932     325.73979      269.20096      56.538833      55.670471      299.24897      260.26191      77079.012      75935.01       28561.086      47373.923    
    156000   156000         0.27442084     0.21081066     340.87175      268.35945      72.512301      55.704099      299.80481     -309.39717      74568.545      75928.525      28614.137      47314.388    
    157000   157000         0.27411293     0.23837659     330.34141      266.21445      64.126959      55.766671      299.57646      240.0786       76984.936      75929.651      28592.343      47337.308    
    158000   158000         0.27381197     0.22236617     337.71124      268.96712      68.744117      55.827966      298.25483      31.247902      76076.09       75938.737      28466.204      47472.533    
    159000   159000         0.27333585     0.21133097     331.4116       259.07783      72.333769      55.925213      298.5902       773.62114      79334.92       75934.406      28498.213      47436.193    
    160000   160000         0.27304093     0.20475231     339.13104      264.4732       74.657841      55.98562       300.17656      142.29497      76554.025      75928.556      28649.618      47278.938    
    161000   161000         0.27278973     0.26804765     334.1493       277.12076      57.028538      56.037175      301.17673     -130.56607      75355.397      75929.31       28745.078      47184.233    
    162000   162000         0.27247855     0.23800066     331.71054      267.48229      64.22825       56.101172      299.99479      13.348542      75991.031      75932.356      28632.27       47300.086    
    163000   163000         0.27211107     0.25685663     332.23191      272.71869      59.513222      56.176935      299.42709     -125.99794      75375.142      75928.976      28578.087      47350.889    
    164000   164000         0.27207969     0.29569307     321.86741      270.17068      51.696734      56.183412      301.8949       276.69903      77141.956      75925.703      28813.622      47112.081    
    165000   165000         0.27173829     0.22469967     333.61026      265.58005      68.030208      56.253999      298.59871      21.084076      76024.898      75932.221      28499.025      47433.197    
    166000   166000         0.27144834     0.24059185     335.75675      272.22025      63.536505      56.314087      299.95179      211.30259      76862.919      75934.121      28628.166      47305.956    
    167000   167000         0.27096746     0.18804246     343.25374      261.96164      81.292096      56.414027      297.87071      462.56656      77972.664      75939.416      28429.543      47509.873    
    168000   168000         0.27043068     0.19244008     341.74456      262.31014      79.434419      56.526004      299.69746      555.09078      78368.276      75928.329      28603.892      47324.437    
    169000   169000         0.26993585     0.28109036     324.37204      269.98965      54.38239       56.629625      300.43577      275.04366      77136.878      75927.902      28674.358      47253.544    
    170000   170000         0.26957746     0.23066647     337.54038      271.26995      66.270429      56.704911      301.48405      29.221816      76066.694      75938.248      28774.409      47163.839    
    171000   171000         0.26921288     0.23234926     331.90979      266.11933      65.790463      56.781702      298.54876     -107.39034      75466.782      75938.825      28494.257      47444.568    
    172000   172000         0.26873941     0.21829725     332.39529      262.36983      70.025462      56.881742      299.62243      532.79525      78271.505      75929.561      28596.731      47332.83     
    173000   173000         0.26827827     0.18387864     346.05789      262.92499      83.132906      56.979515      299.78035      162.74622      76650.755      75935.391      28611.803      47323.589    
    174000   174000         0.26776966     0.18411018     345.65841      262.63005      83.028358      57.087744      299.19882      20.156984      76024.001      75935.399      28556.3        47379.099    
    175000   175000         0.26731912     0.21498052     341.26379      270.15797      71.105816      57.183959      299.05349      100.83162      76378.954      75935.741      28542.429      47393.311    
    176000   176000         0.26685706     0.21293074     341.35109      269.56077      71.790318      57.282974      300.18789      519.02159      78215.583      75934.182      28650.699      47283.482    
    177000   177000         0.26640021     0.24092255     345.57286      282.12356      63.449294      57.381206      297.96404      226.88855      76935.518      75938.211      28438.45       47499.761    
    178000   178000         0.26600443     0.1996673      349.48813      272.92895      76.559184      57.466582      298.64463     -220.95039      74963.895      75935.1        28503.407      47431.694    
    179000   179000         0.26583748     0.31294701     319.47056      270.62406      48.846499      57.502673      299.06425      750.87341      79234.61       75934.086      28543.456      47390.629    
    180000   180000         0.26544865     0.25834161     331.1759       272.00477      59.171133      57.586904      299.08983     -136.31985      75337.626      75936.831      28545.898      47390.933    
    181000   181000         0.26505137     0.27142509     331.5429       275.22398      56.318911      57.673219      300.48051     -140.45822      75314.873      75932.268      28678.628      47253.64     
    182000   182000         0.26476248     0.18511399     337.89633      255.31821      82.578121      57.736148      299.46913      555.87474      78378.029      75934.637      28582.099      47352.537    
    183000   183000         0.26443824     0.17613019     351.42017      264.63002      86.79015       57.806941      299.0519      -615.78737      73231.046      75937.789      28542.278      47395.511    
    184000   184000         0.2641835      0.2309642      333.39248      267.20748      66.185         57.862681      298.43785     -218.03113      74978.453      75936.826      28483.672      47453.154    
    185000   185000         0.26388633     0.22007412     337.35375      267.89368      69.460078      57.927843      300.93996     -71.228116      75616.776      75929.865      28722.48       47207.386    
    186000   186000         0.2637508      0.2718977      324.21151      267.99049      56.22102       57.95761       298.31318      490.32779      78093.749      75938.474      28471.772      47466.702    
    187000   187000         0.26372231     0.26373644     332.7901       274.82934      57.960764      57.96387       298.30907      521.78554      78234.532      75940.982      28471.381      47469.601    
    188000   188000         0.26359091     0.2739129      326.89178      271.08438      55.807395      57.992765      299.05663     -71.179255      75620.66       75933.534      28542.73       47390.805    
    189000   189000         0.26347917     0.25299878     323.29825      262.87754      60.42071       58.01736       298.30659     -211.52538      75005.27       75935.047      28471.144      47463.903    
    190000   190000         0.26330927     0.23466079     335.90596      270.76357      65.142393      58.054795      300.18409      196.57104      76795.777      75931.733      28650.337      47281.395    
    191000   191000         0.26322089     0.29302147     326.53632      274.36825      52.168074      58.074288      299.12683      342.19277      77441.89       75937.754      28549.43       47388.324    
    192000   192000         0.26313742     0.22841069     329.15279      262.22787      66.924913      58.092708      298.34488      300.027        77254.764      75935.971      28474.798      47461.173    
    193000   193000         0.26307826     0.20574304     336.60833      262.30999      74.298336      58.105773      299.07723      235.29747      76972.372      75938.103      28544.695      47393.408    
    194000   194000         0.26292394     0.27403045     322.55415      266.7707       55.783455      58.139878      299.0536      -41.548035      75755.682      75938.31       28542.44       47395.87     
    195000   195000         0.26287989     0.26406511     328.21854      270.32992      57.888622      58.14962       299.50394     -159.18248      75237.755      75937.455      28585.422      47352.033    
    196000   196000         0.26284096     0.27692435     318.68728      263.48677      55.200511      58.158232      301.48366      610.04632      78616.3        75934.792      28774.372      47160.42     
    197000   197000         0.26276716     0.21800357     332.48695      262.36715      70.119796      58.174568      299.64056     -81.799413      75571.548      75931.104      28598.461      47332.643    
    198000   198000         0.26263818     0.27164654     326.43758      270.16458      56.273001      58.203137      298.81176     -217.21314      74983.167      75937.945      28519.359      47418.587    
    199000   199000         0.26245902     0.30876487     322.49429      272.98618      49.508111      58.242867      299.86746     -183.1822       75129.69       75934.882      28620.117      47314.765    
    200000   200000         0.2622416      0.20965788     333.93492      261.02392      72.911002      58.291155      300.52228      9.0609203      75972.788      75932.96       28682.615      47250.345    
    201000   201000         0.2620044      0.22299045     331.73087      263.17921      68.551661      58.343927      299.51663      97.604992      76365.141      75936.111      28586.633      47349.478    
    202000   202000         0.26185258     0.24109926     331.85019      268.44741      63.402789      58.377755      298.28809     -698.41619      72870.226      75940.171      28469.378      47470.793    
    203000   203000         0.26173672     0.26252786     326.35833      268.13074      58.227595      58.403595      297.87164      31.819728      76077.779      75937.912      28429.631      47508.281    
    204000   204000         0.26151882     0.24332963     334.86215      272.04051      62.821636      58.452258      300.13693     -219.2469       74974.474      75938.192      28645.836      47292.356    
    205000   205000         0.26143696     0.29108991     327.73113      275.21689      52.514241      58.470561      299.35807     -135.30853      75343.65       75938.409      28571.499      47366.91     
    206000   206000         0.26136422     0.26790053     323.20155      266.14169      57.059856      58.486833      300.80535     -240.52096      74871.832      75929.061      28709.632      47219.43     
    207000   207000         0.26132739     0.22267639     336.15785      267.5095       68.648346      58.495076      299.55509      223.23181      76914.054      75932.82       28590.304      47342.516    
    208000   208000         0.26121472     0.25158348     328.08374      267.32313      60.76061       58.520308      298.77501      346.07642      77461.113      75939.906      28515.851      47424.055    
    209000   209000         0.26109988     0.25910321     328.82448      269.82728      58.997206      58.546046      299.72538     -274.8034       74730.459      75938.38       28606.557      47331.823    
    210000   210000         0.2610274      0.32186572     320.33889      272.8459       47.492991      58.562302      300.48207     -142.28188      75307.658      75933.069      28678.777      47254.293    
    211000   211000         0.26103105     0.26230285     326.40038      268.12283      58.277543      58.561485      299.72072      436.67767      77850.747      75931.295      28606.112      47325.183    
    212000   212000         0.26101086     0.27231466     332.34922      276.21428      56.134935      58.566015      299.01958     -281.94538      74697.244      75936.557      28539.194      47397.364    
    213000   213000         0.26091864     0.28019736     321.18351      266.6278       54.555708      58.586715      300.65872      308.35162      77285.822      75930.437      28695.637      47234.8      
    214000   214000         0.26083037     0.27386047     328.43411      272.61603      55.818081      58.60654       299.06588      733.84441      79163.65       75937.978      28543.612      47394.366    
    215000   215000         0.2607943      0.28384614     330.11816      276.26376      53.854407      58.614646      298.45943     -159.78478      75237.777      75940.124      28485.732      47454.392    
    216000   216000         0.26072192     0.30462583     322.82185      272.64105      50.180793      58.630919      298.27373     -132.19296      75359.831      75940.896      28468.008      47472.888    
    217000   217000         0.26063329     0.24278282     329.28926      266.32613      62.963128      58.650856      300.18359      463.47025      77969.698      75932.477      28650.289      47282.188    
    218000   218000         0.26045014     0.20850371     337.38304      264.06844      73.314599      58.692099      299.43476      127.73112      76498.362      75936.91       28578.819      47358.091    
    219000   219000         0.26023989     0.22334199     339.59769      271.15393      68.44376       58.739518      300.8918       142.37933      76559.424      75933.584      28717.883      47215.701    
    220000   220000         0.25997464     0.218578       339.48428      269.54876      69.935518      58.799449      300.9363       230.33275      76940.673      75928.226      28722.13       47206.096    
    221000   221000         0.25971268     0.20212752     342.58714      266.95981      75.627333      58.858757      299.53963     -351.03761      74394.258      75937.272      28588.828      47348.444    
    222000   222000         0.25949847     0.21624205     330.22784      259.53685      70.690994      58.907343      297.24996      368.79344      77564.491      75943.429      28370.296      47573.133    
    223000   223000         0.2593082      0.23417898     332.87235      267.59593      65.27642       58.950567      300.62318     -89.041972      75544.198      75935.59       28692.245      47243.345    
    224000   224000         0.25903941     0.18351841     344.454        261.15791      83.296087      59.011738      300.97562     -382.03926      74248.666      75927.95       28725.883      47202.067    
    225000   225000         0.25867494     0.20622813     342.10195      267.97838      74.123573      59.094884      300.19215     -46.528138      75726.708      75931.227      28651.106      47280.12     
    226000   226000         0.25842389     0.19016252     342.62339      262.23759      80.385798      59.152293      299.29952      167.99328      76674.143      75935.715      28565.911      47369.804    
    227000   227000         0.25815042     0.21092878     338.33204      265.86035      72.471694      59.214955      298.69997     -253.7926       74815.283      75930.848      28508.689      47422.159    
    228000   228000         0.25794181     0.27361951     326.61856      270.75133      55.867235      59.262845      298.56908     -392.82307      74208.043      75934.728      28496.197      47438.532    
    229000   229000         0.25780154     0.20937584     337.07501      264.06579      73.009216      59.29509       299.16887      87.12489       76325.058      75942.094      28553.442      47388.652    
    230000   230000         0.25767796     0.26023971     332.26916      273.5296       58.739559      59.323527      301.10573     -263.66312      74771.696      75930.649      28738.3        47192.349    
    231000   231000         0.25764953     0.25027999     335.90325      274.82619      61.077059      59.330073      299.36955      360.12773      77514.624      75931.653      28572.595      47359.058    
    232000   232000         0.2576412      0.24729493     331.81853      270.00422      61.814311      59.331991      300.61568     -243.79054      74854.954      75926.555      28691.529      47235.025    
    233000   233000         0.25756959     0.27519985     323.6549       268.10848      55.546416      59.348489      301.97028      48.287063      76136.275      75924.025      28820.816      47103.21     
    234000   234000         0.25752205     0.22651742     329.63179      262.14751      67.484284      59.359443      300.1796      -238.04356      74886.146      75932.486      28649.908      47282.577    
    235000   235000         0.25749491     0.19182223     335.5546       255.86433      79.690274      59.365699      300.14171      197.61718      76807.406      75938.764      28646.292      47292.471    
    236000   236000         0.25742655     0.23749634     334.18501      269.82037      64.364636      59.381464      299.79052      3.9365007      75947.076      75929.773      28612.774      47316.999    
    237000   237000         0.25732067     0.24388639     332.09592      269.4177       62.678224      59.4059        299.92404     -288.17216      74670.111      75936.795      28625.518      47311.278    
    238000   238000         0.25722147     0.21638433     337.32419      266.67967      70.644515      59.42881       299.68285     -12.37719       75879.48       75933.885      28602.498      47331.388    
    239000   239000         0.25712294     0.22983772     337.15601      270.64663      66.509386      59.451583      300.13243     -423.85202      74066.916      75929.992      28645.407      47284.585    
    240000   240000         0.25697878     0.27396583     329.29273      273.49612      55.796614      59.484934      300.11933     -336.12183      74449.129      75926.58       28644.157      47282.423    
    241000   241000         0.25676385     0.20787758     333.43997      259.90454      73.535422      59.534726      297.25163     -86.287812      75558.261      75937.546      28370.456      47567.089    
    242000   242000         0.25661701     0.23863665     330.5748       266.51773      64.057075      59.568793      300.57667      30.438477      76062.133      75928.338      28687.806      47240.532    
    243000   243000         0.25652047     0.25505308     333.41107      273.47702      59.934055      59.591213      299.68368     -321.77435      74515.844      75930.23       28602.577      47327.653    
    244000   244000         0.25649424     0.27569535     325.79648      270.34989      55.446585      59.597306      300.52172     -8.7444981      75894.719      75933.156      28682.562      47250.594    
    245000   245000         0.2565335      0.23976548     327.55196      263.79648      63.75549       59.588184      299.80508      266.61564      77103.726      75931.796      28614.164      47317.632    
    246000   246000         0.25643662     0.21961638     334.17514      264.57029      69.604853      59.610696      300.23918     -105.90378      75468.857      75934.365      28655.595      47278.77     
    247000   247000         0.25637574     0.23011199     333.50172      267.0716       66.430114      59.624853      300.7995      -183.32186      75127.587      75933.393      28709.074      47224.32     
    248000   248000         0.25629401     0.22001152     333.23593      263.75609      69.479843      59.643866      299.64293     -85.272804      75560          75934.823      28598.687      47336.136    
    249000   249000         0.25617246     0.29737299     325.29795      273.89326      51.404688      59.672166      299.203        254.17735      77059.396      75942.139      28556.699      47385.44     
    250000   250000         0.25618402     0.2529789      323.48244      263.05698      60.425456      59.669473      298.44264      620.48773      78661.066      75933.662      28484.129      47449.534    
    251000   251000         0.256124       0.33969872     321.81808      276.81831      44.999774      59.683457      300.76566      7.0137096      75961.333      75930.504      28705.844      47224.66     
    252000   252000         0.25614975     0.29466965     323.9412       272.06492      51.876281      59.677458      298.26741      253.51165      77050.17       75935.839      28467.404      47468.435    
    253000   253000         0.25612411     0.23918083     328.86768      264.95635      63.911332      59.68343       301.02291      368.55586      77553.753      75933.736      28730.396      47203.34     
    254000   254000         0.25617248     0.29085472     329.55766      277.00096      52.556706      59.672163      300.87159      82.932191      76293.445      75928.909      28715.954      47212.956    
    255000   255000         0.2561949      0.23475811     333.31606      268.20067      65.115388      59.66694       300.56923      664.20907      78852.2        75932.616      28687.096      47245.52     
    256000   256000         0.2561811      0.28140027     333.30964      278.98714      54.322498      59.670154      299.50208      650.18535      78791.699      75933.757      28585.245      47348.512    
    257000   257000         0.25615816     0.25813176     332.93625      273.71702      59.219236      59.675498      299.35443      165.51755      76658.787      75931.241      28571.153      47360.089    
    258000   258000         0.25612544     0.26676954     327.69983      270.39806      57.301765      59.683121      298.9582       548.51087      78352.542      75941.518      28533.335      47408.184    
    259000   259000         0.25606373     0.24672831     326.52495      264.56868      61.956268      59.697506      300.93552     -177.20893      75153.84       75932.776      28722.055      47210.721    
    260000   260000         0.25597391     0.18243772     345.08329      261.29379      83.789501      59.718451      298.58597     -188.27295      75104.732      75932.301      28497.808      47434.493    
    261000   261000         0.25590323     0.22663169     331.21806      263.76781      67.450256      59.734947      300.23035     -360.61333      74345.786      75930.891      28654.753      47276.139    
    262000   262000         0.25585974     0.25157664     329.66937      268.90711      60.762262      59.7451        299.39027     -634.79444      73141.128      75931.418      28574.573      47356.845    
    263000   263000         0.25582853     0.23521797     337.336        272.34792      64.988085      59.752388      300.61453     -139.27053      75315.172      75927.346      28691.419      47235.927    
    264000   264000         0.25578505     0.23349605     341.86526      276.39792      65.467341      59.762545      300.8378      -431.14424      74030.843      75925.973      28712.729      47213.244    
    265000   265000         0.25572876     0.30822315     321.22933      271.63421      49.595125      59.7757        300.14228      461.34736      77967.546      75939.656      28646.347      47293.31     
    266000   266000         0.2557175      0.20377163     343.8151       268.79796      75.017144      59.778332      299.50766      499.69245      78128.419      75931.981      28585.776      47346.204    
    267000   267000         0.25564138     0.27630431     330.35218      275.0278       55.324383      59.796132      300.08544     -133.53441      75345.564      75932.525      28640.921      47291.604    
    268000   268000         0.25565683     0.28243016     328.80929      274.68488      54.12441       59.792518      299.46252      176.61434      76714.844      75938.522      28581.469      47357.053    
    269000   269000         0.25566993     0.25413011     330.61204      270.46031      60.151729      59.789455      298.97542     -44.417918      75747.371      75942.614      28534.978      47407.636    
    270000   270000         0.25561988     0.22269657     338.59333      269.95121      68.642123      59.801161      299.72986     -322.79275      74514.765      75933.626      28606.984      47326.642    
    271000   271000         0.25554721     0.28227612     326.81607      272.66212      54.153946      59.818166      299.1919       247.69206      77022.596      75933.846      28555.64       47378.206    
    272000   272000         0.25549281     0.2584576      334.72011      275.57553      59.144578      59.830904      299.38411      598.5529       78565.191      75934.204      28573.985      47360.219    
    273000   273000         0.25541151     0.21539426     339.0191       268.04986      70.969235      59.849947      300.97506      55.556278      76177.948      75933.745      28725.83       47207.916    
    274000   274000         0.25544709     0.3185223      325.496        277.50449      47.991509      59.841611      300.83831      193.54546      76781.761      75931.016      28712.778      47218.238    
    275000   275000         0.25544172     0.18976145     344.24651      263.69082      80.555697      59.84287       298.57145     -286.55661      74682.265      75941.848      28496.423      47445.425    
    276000   276000         0.25543838     0.27432077     322.21367      266.48925      55.724419      59.843652      299.837       -336.39857      74453.544      75932.211      28617.21       47315.001    
    277000   277000         0.25545227     0.25645317     331.29032      271.68347      59.606851      59.840399      299.66864      44.006544      76124.431      75930.997      28601.141      47329.856    
    278000   278000         0.25539507     0.2465847      337.54114      275.54879      61.992352      59.8538        299.91589      196.93166      76793.589      75927.96       28624.739      47303.221    
    279000   279000         0.2553855      0.20891419     342.11779      268.94725      73.170548      59.856044      298.6947      -150.75684      75272.775      75935.439      28508.186      47427.253    
    280000   280000         0.2553676      0.23839828     329.51848      265.39735      64.121125      59.86024       300.39663      283.58552      77176.465      75929.942      28670.623      47259.319    
    281000   281000         0.25524115     0.21413283     341.80472      270.41742      71.387304      59.889894      300.00711      274.51817      77141.249      75934.582      28633.446      47301.136    
    282000   282000         0.2552496      0.2739479      330.80473      275.00447      55.800266      59.887912      300.44496     -334.55969      74463.052      75933.636      28675.235      47258.401    
    283000   283000         0.25522909     0.26920995     329.88978      273.10746      56.782321      59.892725      300.83682     -217.28082      74971.474      75926.549      28712.636      47213.914    
    284000   284000         0.25517857     0.2641535      331.71836      273.84911      57.869252      59.904582      301.27457      91.020036      76333.709      75933.624      28754.416      47179.208    
    285000   285000         0.25521134     0.33737184     319.14148      273.83134      45.31014       59.896891      298.25893      13.962899      75999.687      75938.312      28466.595      47471.717    
    286000   286000         0.25521995     0.24477698     332.80237      270.35219      62.450176      59.894869      298.61401     -210.52921      75009.555      75934.953      28500.485      47434.468    
    287000   287000         0.2552443      0.31648517     327.36409      279.06368      48.300417      59.889155      299.7962      -424.47541      74067.174      75932.99       28613.316      47319.674    
    288000   288000         0.25528824     0.21087597     332.09793      259.60808      72.489842      59.878848      298.83185      719.46656      79097.406      75934.932      28521.276      47413.656    
    289000   289000         0.25519539     0.22436714     334.13241      266.00138      68.131035      59.900634      299.68332     -547.87521      73527.356      75935.585      28602.542      47333.043    
    290000   290000         0.25517363     0.25986671     326.95222      268.12836      58.82387       59.905741      299.43522      360.72014      77522.935      75937.36       28578.863      47358.497    
    291000   291000         0.25520891     0.27915524     326.39535      271.63598      54.759371      59.89746       298.37096     -426.83593      74061.812      75938.004      28477.288      47460.716    
    292000   292000         0.25520014     0.25985702     330.75426      271.9282       58.826065      59.89952       299.26136      796.41513      79439.942      75939.235      28562.27       47376.965    
    293000   293000         0.255077       0.21962131     332.90347      263.30018      69.603289      59.928437      298.81461      621.5161       78666.837      75934.913      28519.63       47415.283    
    294000   294000         0.25498359     0.20991839     334.46294      261.64242      72.820515      59.95039       299.36171      53.202821      76173.121      75939.264      28571.847      47367.417    
    295000   295000         0.25483847     0.21098061     332.39855      259.94467      72.453887      59.98453       298.96667     -20.496128      75848.209      75938.301      28534.144      47404.157    
    296000   296000         0.25471245     0.26997941     327.32435      270.70387      56.620488      60.014206      298.96651     -305.28437      74591.093      75932.995      28534.128      47398.867    
    297000   297000         0.25455096     0.18974826     334.62353      254.06224      80.561294      60.05228       298.73095      41.43475       76119.04       75936.91       28511.645      47425.265    
    298000   298000         0.25446865     0.23999039     327.09799      263.40225      63.695742      60.071705      301.27451     -82.166774      75566.165      75927.335      28754.409      47172.926    
    299000   299000         0.25442716     0.31512877     321.3049       272.79659      48.508314      60.0815        300.23068     -968.97674      71677.458      75936.674      28654.784      47281.89     
    300000   300000         0.25439616     0.20605693     335.53858      261.35343      74.185157      60.088822      299.52444      117.4468       76451.726      75935.479      28587.378      47348.1      
    301000   301000         0.25429888     0.26769315     322.09734      264.99328      57.10406       60.111809      299.25088     -198.92854      75060.392      75934.799      28561.269      47373.53     
    302000   302000         0.25417938     0.2278649      323.70567      256.62046      67.085214      60.140069      297.59484      89.213095      76329.311      75937.168      28403.212      47533.955    
    303000   303000         0.25405618     0.22682557     330.22149      262.82889      67.392602      60.169234      300.20809     -432.6477       74028.679      75930.416      28652.628      47277.789    
    304000   304000         0.25397966     0.25884838     322.99687      263.94158      59.055288      60.187361      300.57894     -230.4457       74921.546      75934.489      28688.023      47246.466    
    305000   305000         0.25394206     0.27590465     324.93891      269.53439      55.404523      60.196274      300.08547     -417.29508      74101.617      75935.872      28640.925      47294.947    
    306000   306000         0.25389643     0.26921746     326.26615      269.48542      56.780736      60.207091      298.2374      -633.52116      73147.317      75932.01       28464.54       47467.47     
    307000   307000         0.25382196     0.20074702     341.71312      265.56571      76.147411      60.224756      298.00851     -461.86723      73904.487      75934.662      28442.694      47491.968    
    308000   308000         0.25368854     0.21522378     329.55859      258.53314      71.025451      60.256431      299.45788     -49.721995      75713.995      75932.552      28581.026      47351.526    
    309000   309000         0.25359473     0.25297921     328.62376      268.19838      60.425383      60.278719      300.81479      206.2914       76838.113      75931.342      28710.533      47220.81     
    310000   310000         0.25357931     0.26673085     328.7663       271.45622      57.310078      60.282386      298.33262     -48.840809      75721.448      75936.132      28473.628      47462.504    
    311000   311000         0.25347157     0.22698401     338.08237      270.73681      67.345563      60.308008      299.17004     -8.2078041      75894.077      75930.155      28553.554      47376.601    
    312000   312000         0.25337365     0.18386144     342.59341      259.45273      83.140681      60.331315      301.15934     -276.10514      74716.981      75930.624      28743.418      47187.206    
    313000   313000         0.25329978     0.19654282     344.6681       266.89184      77.77626       60.348909      299.79155     -86.13279       75556.397      75935          28612.872      47322.128    
    314000   314000         0.25325375     0.25421392     335.96625      275.83435      60.131898      60.359878      300.37985     -66.448726      75636.707      75928.788      28669.021      47259.767    
    315000   315000         0.25315278     0.19970975     342.15617      265.61326      76.542909      60.383952      298.25328     -182.46485      75136.684      75938.723      28466.056      47472.668    
    316000   316000         0.25303482     0.23273513     335.24267      269.56129      65.681384      60.412103      298.55192     -360.23366      74355.795      75939.231      28494.558      47444.672    
    317000   317000         0.25293991     0.2783946      328.3114       273.40241      54.908988      60.434772      299.6538      -377.74258      74274.123      75934.521      28599.725      47334.796    
    318000   318000         0.25279141     0.19041551     337.8121       257.53311      80.278993      60.470273      300.22128      433.66096      77837.705      75931.513      28653.887      47277.626    
    319000   319000         0.25269388     0.21648505     332.87237      262.26073      70.611645      60.493614      299.13065     -121.40587      75398.869      75932.519      28549.794      47382.724    
    320000   320000         0.25261493     0.22883036     329.31724      262.51507      66.802175      60.512519      300.16832     -19.147055      75846.967      75931.129      28648.832      47282.298    
    321000   321000         0.25261486     0.29654749     324.52706      272.97928      51.547783      60.512537      300.75374     -185.75663      75114.924      75931.432      28704.706      47226.726    
    322000   322000         0.25266231     0.29754181     322.49755      271.12203      51.375521      60.501171      301.41019     -274.16034      74723.059      75928.153      28767.359      47160.793    
    323000   323000         0.25270299     0.2662587      326.55984      269.14813      57.411703      60.491431      299.33002      149.28361      76589.102      75932.914      28568.822      47364.092    
    324000   324000         0.25272274     0.28777601     318.05655      264.93757      53.118971      60.486705      297.64549      109.48039      76418.864      75937.634      28408.047      47529.587    
    325000   325000         0.25280865     0.26973547     325.0058       268.3341       56.671692      60.466149      299.42167      107.97497      76404.453      75929.84       28577.57       47352.27     
    326000   326000         0.25286493     0.25202848     324.03963      263.3863       60.653326      60.452693      300.22092      669.5916       78876.959      75933.715      28653.853      47279.863    
    327000   327000         0.2528767      0.20330953     338.91503      263.72739      75.187648      60.449877      301.75925     -126.22057      75377.386      75932.199      28800.674      47131.525    
    328000   328000         0.252892       0.31648971     324.19454      275.89482      48.299724      60.44622       300.0342       155.44979      76618.191      75934.899      28636.031      47298.868    
    329000   329000         0.25288529     0.25684174     326.70807      267.1914       59.516672      60.447824      300.34311     -166.62593      75195.168      75927.585      28665.514      47262.071    
    330000   330000         0.25282624     0.23613536     323.10846      258.37286      64.735607      60.461942      299.91561     -298.73915      74614.504      75927.636      28624.713      47302.923    
    331000   331000         0.2528095      0.23191509     332.30987      266.39624      65.91363       60.465945      298.17829     -344.93779      74411.698      75927.9        28458.898      47469.002    
    332000   332000         0.25283762     0.2676208      323.68373      266.56424      57.119498      60.459223      299.27801      1079.3113      80675.744      75931.544      28563.859      47367.686    
    333000   333000         0.25276289     0.22663328     334.01751      266.56772      67.449784      60.477097      297.3217      -229.03732      74929.846      75936.598      28377.144      47559.455    
    334000   334000         0.25278341     0.20726067     338.30908      264.55478      73.754301      60.472186      300.54659     -312.76369      74560.618      75935.397      28684.935      47250.461    
    335000   335000         0.25275454     0.1986434      344.6345       267.68069      76.953807      60.479095      298.72672     -130.35408      75364.67       75937.652      28511.242      47426.41     
    336000   336000         0.25271183     0.26647804     335.53458      278.17013      57.364447      60.489315      301.17319      893.76261      79855.805      75927.2        28744.74       47182.46     
    337000   337000         0.25267928     0.23902277     326.68878      262.73519      63.953596      60.497109      300.0528      -315.12752      74548.377      75933.545      28637.806      47295.739    
[...]
    931000   931000         0.2429547      0.19723204     341.05852      263.55404      77.504476      62.918583      299.20501     -208.49332      75017.099      75933.548      28556.891      47376.657    
    932000   932000         0.24290459     0.19762305     337.61765      260.26652      77.351125      62.931564      299.71905     -432.40109      74031.887      75932.541      28605.953      47326.588    
    933000   933000         0.2428674      0.20961154     342.55697      269.62985      72.927118      62.941199      299.98588     -999.60841      71539.061      75932.92       28631.419      47301.501    
    934000   934000         0.24285251     0.1839088      344.78807      261.6688       83.119271      62.945059      299.94895      97.467292      76364.968      75936.543      28627.895      47308.648    
    935000   935000         0.2428313      0.19772373     346.02742      268.71568      77.31174       62.950557      297.98956     -549.8642       73516.482      75933.455      28440.885      47492.569    
    936000   936000         0.24283343     0.2730999      321.9773       266.00377      55.973531      62.950006      299.81087     -223.20939      74951.952      75933.087      28614.716      47318.371    
    937000   937000         0.24284268     0.23030676     339.68672      273.31278      66.373935      62.947608      299.37496     -359.7603       74357.231      75938.587      28573.112      47365.475    
    938000   938000         0.24284694     0.23252003     330.43572      264.69358      65.742144      62.946503      298.70637     -117.89274      75421.044      75939.251      28509.3        47429.951    
    939000   939000         0.24284504     0.22358301     341.60323      273.23325      68.36998       62.946995      298.63131      145.98177      76579.292      75937.617      28502.136      47435.481    
    940000   940000         0.24282159     0.21093784     338.52195      266.05337      72.468581      62.953076      299.82634     -226.99795      74938.121      75935.909      28616.193      47319.717    
    941000   941000         0.2427777      0.21144722     341.84749      269.55349      72.294001      62.964455      300.73327     -73.315895      75607.064      75929.33       28702.753      47226.577    
    942000   942000         0.24274805     0.2264349      341.16384      273.65497      67.508876      62.972147      301.36108      540.74608      78307.972      75931.079      28762.672      47168.407    
    943000   943000         0.24273734     0.22888051     336.70435      269.91681      66.787536      62.974924      299.28307     -192.07213      75094.239      75938.507      28564.341      47374.166    
    944000   944000         0.24271931     0.24088434     336.6969       273.23755      63.459357      62.979603      300.01959      287.20649      77200.295      75937.855      28634.637      47303.218    
    945000   945000         0.24271248     0.20831217     338.00805      264.62604      73.38201       62.981374      301.05691     -62.039956      75655.957      75928.658      28733.641      47195.017    
    946000   946000         0.242723       0.28768261     325.05226      271.91605      53.136217      62.978646      299.95785     -300.47475      74607.088      75927.849      28628.744      47299.105    
    947000   947000         0.24271962     0.23499777     327.03401      261.98503      65.048982      62.979521      300.91447      74.868309      76256.693      75927.603      28720.047      47207.556    
    948000   948000         0.24273231     0.34319544     332.02762      287.48633      44.541284      62.97623       300.3764      -28.998662      75806.313      75933.779      28668.692      47265.087    
    949000   949000         0.24275111     0.23999592     334.4348       270.74052      63.694273      62.971352      298.35792     -24.405801      75832.729      75940.007      28476.043      47463.964    
    950000   950000         0.24274814     0.22553491     339.33427      271.55601      67.778267      62.972122      300.09282     -354.66493      74374.351      75933.31       28641.626      47291.684    
    951000   951000         0.24276414     0.34107389     323.95495      279.13661      44.81834       62.967973      299.42078      93.469403      76347.298      75936.446      28577.485      47358.961    
    952000   952000         0.2427923      0.36022582     322.12946      279.69395      42.435508      62.96067       299.69298     -5.0410032      75914.159      75936.317      28603.464      47332.852    
    953000   953000         0.24280813     0.21157993     335.40156      263.15291      72.248657      62.956564      298.38137     -351.74968      74391.949      75938.093      28478.281      47459.812    
    954000   954000         0.24280032     0.23907905     332.96531      269.02677      63.938542      62.958589      300.68758     -630.0375       73162.181      75931.562      28698.392      47233.17     
    955000   955000         0.24280566     0.22509104     341.11649      273.20457      67.911924      62.957204      299.75019     -386.20221      74231.908      75929.491      28608.925      47320.566    
    956000   956000         0.24281699     0.31970638     324.13403      276.32026      47.813765      62.954267      298.8201      -279.02025      74708.258      75934.715      28520.154      47414.56     
    957000   957000         0.24283363     0.2623017      330.12274      271.84494      58.277799      62.949953      299.48818      48.095979      76145.793      75934.383      28583.917      47350.466    
    958000   958000         0.24284785     0.21249253     339.81976      267.88139      71.938368      62.946269      301.42641      34.803208      76083.671      75930.691      28768.907      47161.784    
    959000   959000         0.24284917     0.28813763     326.67254      273.62023      53.052305      62.945924      300.63878     -145.18381      75292.797      75930.964      28693.734      47237.23     
    960000   960000         0.24283769     0.23140722     334.55281      268.49452      66.058291      62.948902      298.38569     -321.42628      74528.196      75941.051      28478.693      47462.358    
    961000   961000         0.24283562     0.26679523     330.57715      273.2809       57.296248      62.949438      301.76269      142.33214      76551.667      75926.034      28801.003      47125.031    
    962000   962000         0.24281186     0.23337497     330.74256      265.24125      65.501306      62.955598      299.73839     -693.92076      72883.332      75933.516      28607.799      47325.718    
    963000   963000         0.24280185     0.22971437     335.4411       268.896        66.545099      62.958192      300.70946      544.00601      78325.682      75934.46       28700.479      47233.981    
    964000   964000         0.24279781     0.26094021     326.50071      267.91884      58.58187       62.95924       297.75592      254.25578      77055.392      75937.791      28418.587      47519.204    
    965000   965000         0.24279522     0.21591552     331.82729      261.02939      70.797902      62.959913      300.13446      280.68345      77161.784      75928.018      28645.6        47282.418    
    966000   966000         0.24281871     0.31817911     325.29962      277.25635      48.043273      62.95382       299.55036     -966.76911      71685.028      75934.539      28589.852      47344.688    
    967000   967000         0.24285177     0.30610371     323.33961      273.4011       49.938519      62.945251      300.21977      392.77672      77664.381      75937.899      28653.742      47284.157    
    968000   968000         0.24289144     0.24231715     338.62911      275.54498      63.084127      62.934971      301.14693     -371.06047      74303.043      75934.069      28742.233      47191.836    
    969000   969000         0.24293318     0.2829392      327.78286      273.75583      54.027033      62.924156      299.73769      375.29995      77584.4        75934.739      28607.731      47327.008    
    970000   970000         0.24295519     0.26098329     327.63669      269.06449      58.572201      62.918457      300.47047      372.12959      77567.43       75931.705      28677.67       47254.035    
    971000   971000         0.2429762      0.2855495      330.1877       276.65455      53.533156      62.913015      301.07079      519.46181      78208.463      75925.127      28734.966      47190.161    
    972000   972000         0.24299673     0.26062915     332.72572      274.07393      58.651787      62.907702      299.70085     -167.73042      75198.873      75936.145      28604.216      47331.93     
    973000   973000         0.24300605     0.20304076     341.20234      265.91517      75.287177      62.905289      298.96388      58.468092      76197.372      75940.37       28533.877      47406.494    
    974000   974000         0.24299371     0.22848884     330.55828      263.65626      66.902024      62.908484      300.90624      555.5995       78364.858      75922.676      28719.261      47203.414    
    975000   975000         0.24300433     0.26604442     326.02345      268.5655       57.457945      62.905733      300.62101     -575.79098      73403.991      75934.927      28692.038      47242.889    
    976000   976000         0.24300622     0.25520697     327.80643      267.90852      59.897916      62.905245      300.34988      470.65014      77999.443      75930.662      28666.161      47264.502    
    977000   977000         0.24300967     0.26510311     336.14686      278.48489      57.661963      62.904352      299.66558     -355.14702      74374.833      75935.91       28600.849      47335.061    
    978000   978000         0.24302058     0.26737644     326.59882      269.42712      57.1717        62.901527      300.08536     -409.59915      74131.891      75932.317      28640.914      47291.403    
    979000   979000         0.24302213     0.20903964     345.19448      272.06785      73.126634      62.901125      300.2483       267.09389      77106.426      75932.393      28656.465      47275.928    
    980000   980000         0.24300689     0.22156232     334.53412      265.5406       68.993525      62.905071      299.84197      243.09273      77006.407      75937.873      28617.684      47320.189    
    981000   981000         0.24299468     0.26149992     329.17571      270.71922      58.456484      62.908231      300.67856      25.306945      76040.163      75928.924      28697.53       47231.394    
    982000   982000         0.24299349     0.23548654     332.55627      267.6423       64.913968      62.90854       301.81485      82.756275      76293.56       75929.798      28805.981      47123.817    
    983000   983000         0.24300442     0.25571129     324.84414      265.06436      59.779784      62.905711      298.96206     -120.58545      75407.736      75937.779      28533.703      47404.076    
    984000   984000         0.24301201     0.29925453     320.22141      269.13992      51.081484      62.903746      299.70483      418.72081      77777.476      75936.955      28604.595      47332.359    
    985000   985000         0.24300298     0.23057249     334.53802      268.24058      66.297439      62.906082      300.13174     -431.33749      74036.78       75932.759      28645.341      47287.419    
    986000   986000         0.24299949     0.22680492     335.56197      268.16323      67.398741      62.906987      300.79387      14.480267      75993.401      75929.752      28708.536      47221.216    
    987000   987000         0.24300481     0.23825558     338.11572      273.95619      64.159529      62.90561       299.15939      84.17557       76307.258      75937.257      28552.537      47384.72     
    988000   988000         0.24300635     0.21019998     340.21146      267.4885       72.722963      62.90521       299.64121      17.720509      76014.286      75936.394      28598.523      47337.87     
    989000   989000         0.24298431     0.24933553     331.56084      270.25243      61.308412      62.910915      298.9952       470.3893       78005.997      75938.362      28536.866      47401.496    
    990000   990000         0.24299112     0.24917755     335.11989      273.77261      61.347283      62.909152      300.88042      576.74984      78463.245      75928.094      28716.796      47211.298    
    991000   991000         0.24300067     0.23738801     335.46408      271.07007      64.39401       62.906681      298.38443      428.91689      77818.986      75933.647      28478.573      47455.074    
    992000   992000         0.24301496     0.25876675     329.01952      269.9456       59.073917      62.902982      300.28535     -80.741246      75582.668      75937.573      28660.002      47277.572    
    993000   993000         0.24305568     0.27971013     326.112        271.46126      54.65074       62.892444      298.79598      619.33849      78662.389      75940.037      28517.852      47422.185    
    994000   994000         0.24306193     0.28186818     325.9005       271.66818      54.23232       62.890827      299.1596      -572.78485      73413.008      75930.73       28552.557      47378.173    
    995000   995000         0.24307142     0.21919165     337.37335      267.63362      69.739725      62.88837       300.18045      303.18474      77263.833      75931.16       28649.99       47281.17     
    996000   996000         0.24307523     0.19797958     340.54431      263.33248      77.21183       62.887384      299.8068       1.0376281      75934.77       75930.209      28614.327      47315.882    
    997000   997000         0.243083       0.22227885     329.82267      261.05155      68.771122      62.885374      299.50461     -339.81696      74442.437      75936.129      28585.486      47350.644    
    998000   998000         0.24308609     0.24766791     336.24436      274.52314      61.721221      62.884576      301.32474     -348.69117      74394.501      75927.201      28759.203      47167.998    
    999000   999000         0.24308857     0.26843066     326.56893      269.62177      56.947168      62.883935      299.92563      736.49956      79170.138      75932.795      28625.669      47307.126    
   1000000   1000000        0.24307425     0.33365052     326.43644      280.62093      45.815501      62.887639      299.9107      -241.99931      74865.087      75928.814      28624.244      47304.57     
   1001000   1001000        0.24306818     0.21945994     331.15065      261.49618      69.654469      62.889211      300.4675       28.262422      76055.578      75931.348      28677.386      47253.962    
   1002000   1002000        0.24306902     0.2655685      319.75371      262.1928       57.560915      62.888991      297.53809      155.16291      76621.361      75939.33       28397.796      47541.534    
   1003000   1003000        0.24308247     0.22840857     339.18057      272.25504      66.925534      62.885513      299.41515     -33.353569      75787.597      75934.205      28576.947      47357.258    
   1004000   1004000        0.24307462     0.2638266      332.43946      274.4985       57.940957      62.887544      300.86906      538.28293      78295.586      75929.52       28715.712      47213.808    
   1005000   1005000        0.24305629     0.21939573     335.14542      265.47057      69.674855      62.892286      297.97062     -960.42168      71714.236      75935.847      28439.077      47496.77     
   1006000   1006000        0.24307044     0.29225719     333.75484      281.45034      52.304498      62.888626      299.82753     -183.08329      75125.458      75930.216      28616.306      47313.909    
   1007000   1007000        0.24307134     0.24247114     329.55508      266.51102      63.044062      62.888392      299.76401     -378.9432       74264.398      75930.074      28610.243      47319.831    
   1008000   1008000        0.24306044     0.29344847     325.27572      273.18356      52.092164      62.891213      300.4995       690.2705       78970.115      75935.975      28680.441      47255.535    
   1009000   1009000        0.24306471     0.2418268      334.9606       271.74856      63.212042      62.890108      300.43368      431.73169      77827.306      75929.595      28674.158      47255.436    
   1010000   1010000        0.24307056     0.28480591     325.66546      271.99254      53.672924      62.888595      299.3374      -61.015364      75666.098      75934.296      28569.527      47364.769    
   1011000   1011000        0.24306883     0.21689887     338.55859      268.08166      70.476928      62.88904       298.76967     -484.90724      73802.229      75933.678      28515.341      47418.337    
   1012000   1012000        0.24306073     0.27734723     331.23372      276.11737      55.116345      62.891138      299.39088      592.515        78540.814      75936.367      28574.632      47361.735    
   1013000   1013000        0.24306105     0.2180651      341.17635      271.07634      70.10001       62.891054      299.518        271.74591      77132.057      75937.575      28586.764      47350.811    
   1014000   1014000        0.24306023     0.25562935     333.25165      273.4527       59.798945      62.891267      298.40984     -485.56897      73796.791      75931.149      28480.998      47450.151    
   1015000   1015000        0.24306129     0.22962988     331.38692      264.81734      66.569586      62.890991      300.99919     -51.456277      75704.853      75931.033      28728.132      47202.901    
   1016000   1016000        0.24304858     0.2144001      339.79045      268.49214      71.298314      62.894281      300.35728     -582.63297      73372.349      75933.359      28666.866      47266.493    
   1017000   1017000        0.24302908     0.26080727     329.19497      270.58324      58.61173       62.899328      300.29641     -197.48666      75067.046      75935.115      28661.058      47274.057    
   1018000   1018000        0.24303224     0.21273499     335.34004      263.48367      71.856376      62.89851       301.58287      310.70941      77295.001      75929.252      28783.84       47145.412    
   1019000   1019000        0.24301776     0.23111726     334.21811      268.07695      66.141169      62.902257      299.11741      1337.8065      81813.191      75932.755      28548.53       47384.225    
   1020000   1020000        0.24300715     0.26284218     328.25492      270.09696      58.157962      62.905004      298.9865      -730.80322      72729.167      75941.471      28536.036      47405.435    
Loop time of 12861.2 on 32 procs for 1000000 steps with 32020 atoms

Performance: 6.718 ns/day, 3.573 hours/ns, 77.753 timesteps/s, 2.490 Matom-step/s
99.4% CPU use with 32 MPI tasks x 1 OpenMP threads

MPI task timing breakdown:
Section |  min time  |  avg time  |  max time  |%varavg| %total
---------------------------------------------------------------
Pair    | 8025.3     | 8500.6     | 9070.3     | 279.8 | 66.09
Bond    | 165.63     | 177.26     | 189.29     |  41.8 |  1.38
Kspace  | 2235.1     | 2822.2     | 3225.6     | 474.1 | 21.94
Neigh   | 542.25     | 553.94     | 558.12     |  15.8 |  4.31
Comm    | 496.89     | 604.13     | 742.22     | 235.5 |  4.70
Output  | 0.089975   | 0.1097     | 0.28981    |  10.1 |  0.00
Modify  | 112.01     | 175.5      | 258.76     | 323.9 |  1.36
Other   |            | 27.52      |            |       |  0.21

Nlocal:        1000.62 ave        1032 max         932 min
Histogram: 1 0 0 0 1 6 8 7 7 2
Nghost:        11945.7 ave       12047 max       11861 min
Histogram: 4 2 3 5 3 7 2 3 1 2
Neighs:         610640 ave      645408 max      545851 min
Histogram: 1 0 0 1 3 5 10 5 6 1

Total # of neighbors = 19540465
Ave neighs/atom = 610.25812
Ave special neighs/atom = 10.738289
Neighbor list builds = 40210
Dangerous builds = 0
Total wall time: 3:38:35
