units real
atom_style full
boundary p p p

# styles
pair_style lj/charmm/coul/long 8.0 12.0
kspace_style pppm 1e-6
dielectric 1.000000
bond_style harmonic
angle_style harmonic
dihedral_style fourier
improper_style cvff
special_bonds amber
pair_modify mix arithmetic
neighbor 2.0 bin
neigh_modify delay 0 every 1 check yes

# system definition
read_data ../final.data
Reading data file ...
  orthogonal box = (-33.498877 -36.417644 -30.882204) to (33.498877 36.417644 30.882204)
  4 by 4 by 2 MPI processor grid
  reading atoms ...
  32020 atoms
  reading velocities ...
  32020 velocities
  scanning bonds ...
  3 = max bonds/atom
  scanning angles ...
  6 = max angles/atom
  scanning dihedrals ...
  15 = max dihedrals/atom
  scanning impropers ...
  1 = max impropers/atom
  reading bonds ...
  32010 bonds
  reading angles ...
  60000 angles
  reading dihedrals ...
  79910 dihedrals
  reading impropers ...
  2000 impropers
Finding 1-2 1-3 1-4 neighbors ...
  special bond factors lj:    0        0        0.5     
  special bond factors coul:  0        0        0.8333333333333334
     4 = max # of 1-2 neighbors
     8 = max # of 1-3 neighbors
    17 = max # of 1-4 neighbors
    20 = max # of special neighbors
  special bonds CPU = 0.077 seconds
  read_data CPU = 0.536 seconds
# do not reset velocities

# vars
variable tLog equal 1000
variable nEvery equal 10
variable nRepeat equal 100
variable boolDump equal 0
variable tDump equal 1000

variable tPreeq equal 10000
variable tPrerun equal 10000
variable tTCrun equal 1000000

variable diffT_delay equal ${tPreeq}+${tPreeq}
variable diffT_delay equal 10000+${tPreeq}
variable diffT_delay equal 10000+10000
# heatflux of 0.05 give good results over 1 ns
variable heat_flux equal 0.05
variable heat_flux_neg equal -1*v_heat_flux

# defining region
variable hot_lo equal (lz*0)+zlo
variable hot_hi equal (lz*0.05)+zlo
variable cold_lo equal (lz*0.50)+zlo
variable cold_hi equal (lz*0.55)+zlo

print "DEBUG: ${hot_lo} ${hot_hi} ${cold_lo} ${cold_hi}"
DEBUG: -30.8822040706059 -27.7939836635453 0 3.08822040706059

# define heating and cooling block regions
region hot block INF INF INF INF ${hot_lo} ${hot_hi} units box
region hot block INF INF INF INF -30.8822040706059 ${hot_hi} units box
region hot block INF INF INF INF -30.8822040706059 -27.7939836635453 units box
region cold block INF INF INF INF ${cold_lo} ${cold_hi} units box
region cold block INF INF INF INF 0 ${cold_hi} units box
region cold block INF INF INF INF 0 3.08822040706059 units box
compute Thot all temp/region hot
compute Tcold all temp/region cold

# STEP 1 - 1st equilibration (nve)
# 1a - thermo output for md2
thermo_style custom step time temp c_Thot c_Tcold press enthalpy etotal ke pe
thermo_modify colname c_Thot Temp_hot colname c_Tcold Temp_cold
thermo_modify flush yes
thermo ${tLog}
thermo 1000

# 1b - nve equilibration
timestep 1.0
fix md2 all nve
run ${tPreeq}
run 10000
PPPM initialization ...
  using 12-bit tables for long-range coulomb (src/kspace.cpp:342)
  G vector (1/distance) = 0.25627571
  grid = 50 54 48
  stencil order = 5
  estimated absolute RMS force accuracy = 0.0003553538
  estimated relative force accuracy = 1.0701374e-06
  using double precision FFTW3
  3d grid and FFT values/proc = 11780 5400
Generated 21 of 21 mixed pair_coeff terms from arithmetic mixing rule
Neighbor list info ...
  update: every = 1 steps, delay = 0 steps, check = yes
  max neighbors/atom: 2000, page size: 100000
  master list distance cutoff = 14
  ghost atom cutoff = 14
  binsize = 7, bins = 10 11 9
  1 neighbor lists, perpetual/occasional/extra = 1 0 0
  (1) pair lj/charmm/coul/long, perpetual
      attributes: half, newton on
      pair build: half/bin/newton
      stencil: half/bin/3d
      bin: standard
Per MPI rank memory allocation (min/avg/max) = 18.05 | 18.48 | 18.65 Mbytes
   Step          Time           Temp         Temp_hot      Temp_cold        Press         Enthalpy        TotEng         KinEng         PotEng    
         0   0              299.59509      295.79978      301.19605     -425.02464      74065.257      75933.487      28594.121      47339.366    
      1000   1000           299.5365       306.93316      292.68982     -145.70453      75292.33       75932.786      28588.53       47344.256    
      2000   2000           300.82871      304.00857      298.452       -247.70987      74839.656      75928.485      28711.861      47216.624    
      3000   3000           299.47904      300.91557      305.42643     -120.79335      75402.199      75933.156      28583.045      47350.111    
      4000   4000           299.32509      298.22353      303.42796     -164.86832      75206.849      75931.541      28568.352      47363.189    
      5000   5000           299.69758      303.34364      312.96587     -533.45169      73593.521      75938.351      28603.903      47334.447    
      6000   6000           300.68017      299.39361      297.61566      162.94041      76650.712      75934.495      28697.685      47236.81     
      7000   7000           299.94173      300.41658      307.60187     -353.84218      74380.892      75936.234      28627.205      47309.029    
      8000   8000           299.58768      300.67034      293.27127     -122.47968      75399.675      75938.044      28593.414      47344.631    
      9000   9000           299.95163      307.85797      310.50733     -914.05271      71916.831      75934.623      28628.151      47306.472    
     10000   10000          298.38727      297.4891       299.86817      115.06575      76444.356      75938.575      28478.844      47459.731    
Loop time of 130.813 on 32 procs for 10000 steps with 32020 atoms

Performance: 6.605 ns/day, 3.634 hours/ns, 76.445 timesteps/s, 2.448 Matom-step/s
99.4% CPU use with 32 MPI tasks x 1 OpenMP threads

MPI task timing breakdown:
Section |  min time  |  avg time  |  max time  |%varavg| %total
---------------------------------------------------------------
Pair    | 79.992     | 86.081     | 92.623     |  34.6 | 65.80
Bond    | 1.6645     | 1.7623     | 1.8735     |   4.4 |  1.35
Kspace  | 22.472     | 29.14      | 35.431     |  60.2 | 22.28
Neigh   | 5.3736     | 5.5941     | 5.6508     |   2.9 |  4.28
Comm    | 4.7807     | 6.5921     | 8.8334     |  42.8 |  5.04
Output  | 0.0010225  | 0.0018744  | 0.0032319  |   1.5 |  0.00
Modify  | 0.051833   | 0.057541   | 0.071564   |   1.5 |  0.04
Other   |            | 1.584      |            |       |  1.21

Nlocal:        1000.62 ave        1034 max         962 min
Histogram: 1 0 5 4 6 4 3 2 4 3
Nghost:        11941.5 ave       12021 max       11869 min
Histogram: 2 0 7 4 6 2 6 2 2 1
Neighs:         610609 ave      642185 max      565613 min
Histogram: 1 0 4 3 3 5 5 5 4 2

Total # of neighbors = 19539500
Ave neighs/atom = 610.22798
Ave special neighs/atom = 10.738289
Neighbor list builds = 400
Dangerous builds = 0
unfix md2

# STEP 2 - MD for thermal conductivity
# 2a - impose nve
fix md3 all nve

# 2b - impose heat flux
fix hot all ehex 1 ${heat_flux} region hot
fix hot all ehex 1 0.05 region hot
fix cold all ehex 1 ${heat_flux_neg} region cold
fix cold all ehex 1 -0.05 region cold

# 2c - calculate thermal profile
compute ke all ke/atom
variable temp atom c_ke/(1.5*0.001987204)

compute layers all chunk/atom bin/1d z lower 0.05 units reduced
fix bins all ave/chunk ${nEvery} ${nRepeat} ${tLog} layers v_temp file Tprofile_z_ehex.dat
fix bins all ave/chunk 10 ${nRepeat} ${tLog} layers v_temp file Tprofile_z_ehex.dat
fix bins all ave/chunk 10 100 ${tLog} layers v_temp file Tprofile_z_ehex.dat
fix bins all ave/chunk 10 100 1000 layers v_temp file Tprofile_z_ehex.dat

variable tdiff equal c_Thot-c_Tcold
fix ave all ave/time ${nEvery} ${nRepeat} ${tLog} v_tdiff ave running start ${diffT_delay}
fix ave all ave/time 10 ${nRepeat} ${tLog} v_tdiff ave running start ${diffT_delay}
fix ave all ave/time 10 100 ${tLog} v_tdiff ave running start ${diffT_delay}
fix ave all ave/time 10 100 1000 v_tdiff ave running start ${diffT_delay}
fix ave all ave/time 10 100 1000 v_tdiff ave running start 20000

# pre define kappa
variable kappa_inst equal 0
variable kappa equal 0

# 2d - thermo out
# dump dump_tc all custom 1000 dump.tc_x_ehex.lammpstrj id type mol x y z ix iy iz vx vy vz
thermo_style custom step time v_kappa v_kappa_inst c_Thot c_Tcold v_tdiff f_ave temp press enthalpy etotal ke pe
WARNING: New thermo_style command, previous thermo_modify settings will be lost (src/output.cpp:904)
thermo_modify colname v_kappa kappa colname v_kappa_inst kappa_inst colname c_Thot Temp_hot colname c_Tcold Temp_cold colname v_tdiff dTemp_step colname f_ave dTemp
thermo_modify flush yes
thermo ${tLog}
thermo 1000

# 2e - prerun
run ${tPrerun}
run 10000
PPPM initialization ...
  using 12-bit tables for long-range coulomb (src/kspace.cpp:342)
  G vector (1/distance) = 0.25627571
  grid = 50 54 48
  stencil order = 5
  estimated absolute RMS force accuracy = 0.0003553538
  estimated relative force accuracy = 1.0701374e-06
  using double precision FFTW3
  3d grid and FFT values/proc = 11780 5400
Generated 21 of 21 mixed pair_coeff terms from arithmetic mixing rule
Per MPI rank memory allocation (min/avg/max) = 18.93 | 19.07 | 19.15 Mbytes
   Step          Time          kappa        kappa_inst      Temp_hot      Temp_cold      dTemp_step       dTemp           Temp          Press         Enthalpy        TotEng         KinEng         PotEng    
     10000   10000          0              0              298.33502      299.86817     -1.5331442      0              298.38727      115.06575      76444.356      75938.575      28478.844      47459.731    
     11000   11000          0              0              296.61         311.30198     -14.691973      0              300.16838      51.484841      76156.891      75930.586      28648.838      47281.747    
     12000   12000          0              0              308.86172      302.14691      6.7148171      0              300.20796      453.59953      77923.176      75929.343      28652.615      47276.728    
     13000   13000          0              0              302.46952      298.84113      3.6283933      0              298.95454     -348.92013      74412.469      75946.175      28532.985      47413.19     
     14000   14000          0              0              298.79786      297.6516       1.1462628      0              299.56678     -163.05069      75224.885      75941.588      28591.42       47350.168    
     15000   15000          0              0              305.34096      305.57982     -0.23886025     0              301.91423      551.78624      78354.517      75929.096      28815.467      47113.63     
     16000   16000          0              0              315.81765      294.49387      21.323788      0              300.59516     -81.45793       75575.683      75933.738      28689.571      47244.167    
     17000   17000          0              0              311.38844      277.7198       33.668643      0              300.99352     -318.29208      74532.017      75931.096      28727.591      47203.505    
     18000   18000          0              0              307.17499      284.64614      22.528855      0              300.13117      336.39888      77408.995      75930.326      28645.287      47285.04     
     19000   19000          0              0              308.96726      282.30781      26.659451      0              299.86702     -278.8052       74704.412      75929.923      28620.075      47309.847    
     20000   20000          0              0              315.40683      298.1506       17.256228      18.281512      299.47094      143.37691      76564.605      75934.38       28582.273      47352.107    
Loop time of 131.018 on 32 procs for 10000 steps with 32020 atoms

Performance: 6.595 ns/day, 3.639 hours/ns, 76.325 timesteps/s, 2.444 Matom-step/s
99.4% CPU use with 32 MPI tasks x 1 OpenMP threads

MPI task timing breakdown:
Section |  min time  |  avg time  |  max time  |%varavg| %total
---------------------------------------------------------------
Pair    | 79.005     | 85.466     | 92.153     |  32.8 | 65.23
Bond    | 1.6351     | 1.7647     | 1.9065     |   4.7 |  1.35
Kspace  | 22.106     | 29.198     | 34.855     |  55.7 | 22.29
Neigh   | 5.4008     | 5.6096     | 5.6636     |   2.7 |  4.28
Comm    | 4.9284     | 6.7328     | 8.8847     |  40.2 |  5.14
Output  | 0.0015569  | 0.0016698  | 0.0023537  |   0.3 |  0.00
Modify  | 0.9457     | 1.9751     | 3.5407     |  63.6 |  1.51
Other   |            | 0.2692     |            |       |  0.21

Nlocal:        1000.62 ave        1034 max         970 min
Histogram: 5 4 1 3 3 3 3 3 6 1
Nghost:        11928.9 ave       12020 max       11853 min
Histogram: 1 5 3 4 7 2 6 2 0 2
Neighs:         610625 ave      644169 max      574961 min
Histogram: 3 1 4 1 4 9 3 2 3 2

Total # of neighbors = 19540009
Ave neighs/atom = 610.24388
Ave special neighs/atom = 10.738289
Neighbor list builds = 402
Dangerous builds = 0

# 2f - calc kappa
variable kappa_inst equal (${heat_flux}/(lx*ly)/2.0)*(lz/2.0)/v_tdiff*69478.5785
variable kappa_inst equal (0.05/(lx*ly)/2.0)*(lz/2.0)/v_tdiff*69478.5785
variable kappa equal (${heat_flux}/(lx*ly)/2.0)*(lz/2.0)/f_ave*69478.5785
variable kappa equal (0.05/(lx*ly)/2.0)*(lz/2.0)/f_ave*69478.5785

# 2g - md run for kappa calculation
# optional traj dump
if "${boolDump} == 1" then     "dump tc_dump all atom ${tDump} dump.tc_z.lammpstrj"
run ${tTCrun}
run 1000000
PPPM initialization ...
  using 12-bit tables for long-range coulomb (src/kspace.cpp:342)
  G vector (1/distance) = 0.25627571
  grid = 50 54 48
  stencil order = 5
  estimated absolute RMS force accuracy = 0.0003553538
  estimated relative force accuracy = 1.0701374e-06
  using double precision FFTW3
  3d grid and FFT values/proc = 11780 5400
Generated 21 of 21 mixed pair_coeff terms from arithmetic mixing rule
Per MPI rank memory allocation (min/avg/max) = 19.18 | 19.33 | 19.41 Mbytes
   Step          Time          kappa        kappa_inst      Temp_hot      Temp_cold      dTemp_step       dTemp           Temp          Press         Enthalpy        TotEng         KinEng         PotEng    
     20000   20000          0.60129143     0.63761919     315.39054      298.1506       17.23994       18.281512      299.47094      143.37704      76564.605      75934.38       28582.273      47352.107    
     21000   21000          0.56606365     0.32348246     321.73568      287.75388      33.981802      19.419224      299.26542     -177.79289      75153.196      75934.699      28562.657      47372.042    
     22000   22000          0.51487428     0.45120554     314.2738       289.91125      24.362548      21.349905      297.64024     -184.65477      75127.102      75938.767      28407.545      47531.222    
     23000   23000          0.50461405     0.39559544     309.22946      281.44219      27.787269      21.784009      297.62245     -19.419357      75849.196      75934.555      28405.848      47528.707    
     24000   24000          0.50194622     0.40931061     315.79597      288.93979      26.856174      21.89979       297.9455       427.5119       77812.22       75933.057      28436.68       47496.377    
     25000   25000          0.48954722     0.41862857     315.33948      289.08108      26.258401      22.454457      299.69093      31.666147      76068.748      75929.557      28603.269      47326.289    
     26000   26000          0.48191524     0.30805407     327.10791      291.42419      35.683725      22.810063      301.09811      375.60434      77579.231      75928.232      28737.573      47190.658    
     27000   27000          0.48017067     0.57862763     311.22         292.22243      18.997566      22.892937      298.43582      768.02975      79313.534      75937.597      28483.478      47454.119    
     28000   28000          0.47773362     0.30590904     313.39647      277.46253      35.93394       23.00972       298.7307       278.74701      77156.983      75931.728      28511.622      47420.106    
     29000   29000          0.46078686     0.24263359     318.42684      273.12183      45.305009      23.855969      298.72067      255.24659      77054.862      75932.905      28510.665      47422.241    
     30000   30000          0.45076757     0.41941201     314.86887      288.65952      26.209352      24.386219      299.37336      381.3027       77619.898      75943.851      28572.959      47370.892    
     31000   31000          0.44212448     0.69194459     303.28296      287.39655      15.886412      24.862945      298.1883       373.54536      77578.285      75936.336      28459.853      47476.483    
     32000   32000          0.43273131     0.45809981     304.82416      280.82826      23.995899      25.402638      299.18602      511.18767      78182.006      75935.039      28555.079      47379.96     
     33000   33000          0.42939457     0.53487527     303.32366      282.77211      20.551552      25.600037      299.19313      133.18482      76525.473      75940.048      28555.757      47384.291    
     34000   34000          0.42507375     0.25410068     317.7645       274.50403      43.260477      25.860258      299.83352     -515.47455      73670.911      75936.721      28616.878      47319.842    
     35000   35000          0.42251905     0.50584314     310.81482      289.08374      21.731078      26.016618      301.20202      570.725        78443.713      75935.045      28747.491      47187.555    
     36000   36000          0.42418241     0.43354648     306.81733      281.46246      25.354875      25.914599      298.802       -116.41464      75425.789      75937.499      28518.427      47419.072    
     37000   37000          0.42032247     0.30806513     314.9136       279.23115      35.682444      26.152579      299.7334       453.68124      77929.27       75935.077      28607.322      47327.755    
     38000   38000          0.41842775     0.40536465     319.70473      292.58713      27.117601      26.271004      297.93841      554.24033      78373.642      75937.433      28436.004      47501.429    
     39000   39000          0.41267257     0.29096645     322.80115      285.02182      37.779327      26.637382      298.05744      58.034275      76190.055      75934.961      28447.364      47487.597    
     40000   40000          0.40877713     0.3403558      325.4919       293.19476      32.297134      26.891222      297.72799      233.26733      76963.776      75938.43       28415.92       47522.51     
     41000   41000          0.40128492     0.27132719     319.16273      278.64885      40.513878      27.393296      299.04309     -141.7467       75315.655      75938.714      28541.437      47397.277    
     42000   42000          0.39461943     0.22493844     337.65635      288.78734      48.869         27.855995      299.88978     -473.14744      73854.814      75934.572      28622.247      47312.324    
     43000   43000          0.38815056     0.2275408      336.47649      288.1664       48.310092      28.32024       298.77867      612.42416      78628.022      75936.062      28516.2        47419.862    
     44000   44000          0.38162184     0.36194521     320.82616      290.4555       30.370665      28.804737      299.20693      693.0498       78985.918      75939.562      28557.075      47382.487    
     45000   45000          0.37896455     0.3447662      316.82908      284.94511      31.883975      29.006715      299.47862      151.68114      76598.827      75932.101      28583.005      47349.095    
     46000   46000          0.37408117     0.3017897      311.30611      274.88168      36.424426      29.385379      299.34719     -325.42344      74503.918      75934.343      28570.461      47363.882    
     47000   47000          0.36942424     0.31276063     322.46498      287.31824      35.14674       29.755808      300.83457      464.90087      77975.681      75932.171      28712.421      47219.75     
     48000   48000          0.36751176     0.30434111     322.5045       286.38544      36.119066      29.910653      299.85035     -90.129333      75533.434      75929.605      28618.484      47311.12     
     49000   49000          0.36386024     0.24821087     329.53683      285.24982      44.287008      30.210821      299.18582     -197.20377      75064.208      75931.033      28555.059      47375.974    
     50000   50000          0.35923985     0.25068683     335.09444      291.24484      43.849599      30.59938       302.07257      230.31373      76939.586      75927.224      28830.579      47096.645    
     51000   51000          0.35643696     0.40304457     314.01499      286.74129      27.2737        30.840003      300.24247      531.05914      78268.846      75934.532      28655.909      47278.624    
     52000   52000          0.35132783     0.2849777      329.4801       290.90685      38.573252      31.288488      299.61009     -405.98574      74141.661      75926.204      28595.553      47330.65     
     53000   53000          0.34678225     0.18746604     331.43511      272.79773      58.637376      31.698615      298.98417      327.0488       77370.734      75933.165      28535.814      47397.351    
     54000   54000          0.34354444     0.30869248     319.56065      283.95072      35.609927      31.997365      298.89019      647.42252      78775.242      75929.444      28526.844      47402.601    
     55000   55000          0.33881155     0.18289401     333.68594      273.58274      60.103209      32.444339      299.81112      301.14909      77261.928      75938.203      28614.739      47323.463    
     56000   56000          0.33568226     0.30790731     319.29194      283.59121      35.700734      32.746791      298.72415     -221.74561      74960.532      75935.233      28510.997      47424.236    
     57000   57000          0.33299832     0.31385214     314.49553      279.47102      35.024508      33.010728      298.98966     -117.56247      75422.898      75939.653      28536.338      47403.315    
     58000   58000          0.32979521     0.2501358      327.70388      283.75769      43.946196      33.331341      301.35136     -667.02844      73001.913      75933.891      28761.744      47172.146    
     59000   59000          0.32654581     0.23653394     322.47916      276.00584      46.473318      33.663016      298.44764     -21.32764       75845.133      75938.88       28484.606      47454.274    
     60000   60000          0.32357387     0.29510512     312.45442      275.20492      37.249495      33.972202      299.11235      554.47294      78369.385      75932.155      28548.048      47384.107    
     61000   61000          0.32055525     0.27547337     315.13077      275.22668      39.904099      34.292113      299.0778       156.83948      76626.057      75936.656      28544.749      47391.907    
     62000   62000          0.3181305      0.24524645     316.40007      271.57774      44.822328      34.553483      299.79439      376.56762      77591.135      75935.901      28613.143      47322.758    
     63000   63000          0.31530926     0.19388302     325.59252      268.89588      56.696647      34.862651      297.73828      305.04699      77277.118      75936.26       28416.903      47519.357    
     64000   64000          0.31369855     0.24794401     323.12462      278.78994      44.334674      35.041657      298.73304      222.76282      76916.1        75936.928      28511.845      47425.083    
     65000   65000          0.31250873     0.25471446     326.64032      283.48409      43.156235      35.175072      299.41787      561.6319       78403.431      75934.732      28577.207      47357.525    
     66000   66000          0.31048995     0.28645973     315.24148      276.86779      38.37369       35.403777      297.93432     -23.504339      75831.165      75934.481      28435.614      47498.867    
     67000   67000          0.3087973      0.21135595     323.32227      271.31277      52.009499      35.597839      300.19214     -216.42426      74980.211      75931.521      28651.106      47280.416    
     68000   68000          0.30708407     0.27210739     322.09405      281.69634      40.397715      35.796442      299.83968     -87.980384      75542.795      75929.52       28617.465      47312.055    
     69000   69000          0.3053121      0.19860765     324.16356      268.81566      55.347901      36.004196      299.45244      226.7915       76930.924      75934.044      28580.506      47353.538    
     70000   70000          0.30296724     0.23464817     322.60229      275.75549      46.846804      36.282856      298.61606     -133.99269      75346.577      75935.553      28500.68       47434.872    
     71000   71000          0.30100676     0.18663449     326.29838      267.39974      58.898635      36.51917       298.38535      173.12184      76700.604      75939.633      28478.66       47460.973    
     72000   72000          0.29906637     0.20135677     323.97727      269.38503      54.592238      36.756112      299.99751      562.62646      78406.631      75933.561      28632.53       47301.031    
     73000   73000          0.29725964     0.20332125     325.01386      270.94908      54.064772      36.979513      297.95956      14.360193      76003.524      75940.403      28438.022      47502.381    
     74000   74000          0.29549372     0.25682951     318.60605      275.80522      42.800832      37.20051       299.61852      100.52403      76377.181      75935.32       28596.357      47338.962    
     75000   75000          0.29416659     0.26438676     314.47509      272.89768      41.577411      37.368339      300.39578      212.83626      76866.3        75930.761      28670.541      47260.22     
     76000   76000          0.29201816     0.19969761     321.24601      266.2002       55.045811      37.643264      297.64049      81.118274      76294.541      75937.979      28407.569      47530.41     
     77000   77000          0.29027681     0.20297342     323.56366      269.40624      54.15742       37.869084      299.12813      235.17911      76967.056      75933.307      28549.554      47383.753    
     78000   78000          0.28800008     0.18681846     332.94057      274.09994      58.840636      38.16845       301.4594       287.26828      77191.192      75928.481      28772.056      47156.425    
     79000   79000          0.28613003     0.17036855     327.60023      263.07825      64.521984      38.417907      299.33817      245.71976      77013.254      75933.173      28569.6        47363.573    
     80000   80000          0.28376747     0.23765672     312.52877      266.27501      46.253761      38.737763      296.00106      260.08173      77088.687      75945.477      28251.098      47694.379    
     81000   81000          0.28227413     0.22574979     323.6014       274.90803      48.693363      38.9427        298.58306     -432.29504      74040.897      75941.085      28497.53       47443.554    
     82000   82000          0.28066026     0.21348624     330.20237      278.71185      51.490516      39.166631      300.18406      62.803875      76201.734      75925.674      28650.334      47275.34     
     83000   83000          0.27913035     0.17913418     330.77532      269.41062      61.364708      39.381302      299.12339      575.50451      78462.423      75932.746      28549.101      47383.645    
     84000   84000          0.27754437     0.22904067     324.5453       276.55157      47.993734      39.60634       299.10754     -481.82112      73817.203      75935.087      28547.589      47387.498    
     85000   85000          0.2754408      0.16834819     342.94249      277.64617      65.296317      39.908818      299.69583     -212.94342      75003.583      75939.593      28603.737      47335.856    
     86000   86000          0.27406008     0.33343636     323.38752      290.42016      32.967361      40.10988       299.61284      448.48005      77906.273      75934.942      28595.816      47339.127    
     87000   87000          0.27210551     0.1498092      339.9007       266.52392      73.37678       40.397994      300.72136     -86.253998      75550.582      75929.719      28701.615      47228.104    
     88000   88000          0.27067033     0.20824908     326.27659      273.49116      52.785428      40.612197      300.14138      227.5318       76933.084      75932.95       28646.261      47286.689    
     89000   89000          0.2693949      0.17911261     329.27931      267.90721      61.3721        40.804473      299.21709     -104.21413      75477.498      75935.58       28558.045      47377.535    
     90000   90000          0.26788153     0.18324683     330.53257      270.54509      59.987486      41.034993      299.73194      170.74737      76686.273      75935.74       28607.183      47328.557    
     91000   91000          0.2668793      0.23947711     326.90914      281.00698      45.90216       41.189095      299.44204      613.72677      78628.98       75931.294      28579.514      47351.78     
     92000   92000          0.26598476     0.18007704     324.93245      263.88904      61.043413      41.327619      299.97431      132.03155      76510.84       75930.485      28630.315      47300.17     
     93000   93000          0.26527792     0.20735354     323.35292      270.33951      53.013403      41.437737      300.558        236.98962      76967.044      75925.337      28686.024      47239.313    
     94000   94000          0.26439057     0.19617748     330.06888      274.03535      56.033531      41.576812      300.58246      964.17695      80166.318      75928.201      28688.359      47239.842    
     95000   95000          0.2636738      0.20561776     328.72379      275.26286      53.46093       41.689833      297.21385     -443.9224       73987.868      75939.165      28366.849      47572.316    
     96000   96000          0.26267199     0.18973413     327.51874      269.58232      57.936422      41.848836      301.07339      264.44624      77093.955      75931.561      28735.215      47196.346    
     97000   97000          0.2618496      0.24882698     320.12302      275.94567      44.177351      41.98027       300.08119     -651.05904      73065.602      75927.384      28640.516      47286.868    
     98000   98000          0.26087147     0.18775009     327.44879      268.90013      58.548665      42.137673      300.83398      98.15702       76358.181      75926.724      28712.364      47214.36     
     99000   99000          0.26060314     0.24485964     325.92118      281.02804      44.893134      42.181061      300.92456      162.20065      76645.493      75932.527      28721.01       47211.518    
    100000   100000         0.26052407     0.3434474      311.21218      279.20578      32.006405      42.193863      298.62023      706.1203       79037.686      75933.877      28501.078      47432.799    
    101000   101000         0.26061969     0.21044936     325.03561      272.80206      52.233549      42.178382      298.75492      407.10376      77723.479      75934.022      28513.933      47420.088    
    102000   102000         0.2600252      0.25551772     317.10491      274.08435      43.020565      42.274813      301.69565      289.24338      77197.992      75926.599      28794.604      47131.995    
    103000   103000         0.25941597     0.21647512     321.01628      270.23669      50.779584      42.374094      300.0266       737.05063      79178.293      75938.528      28635.306      47303.222    
    104000   104000         0.2586967      0.24331631     322.76121      277.58333      45.177887      42.491909      300.20923     -360.06565      74350.751      75933.449      28652.737      47280.712    
    105000   105000         0.2578525      0.17842262     332.62602      271.01658      61.609435      42.631026      300.17346     -746.66398      72647.934      75929.956      28649.322      47280.634    
    106000   106000         0.25725694     0.23468618     324.26906      277.42984      46.839216      42.729718      300.95432      185.29056      76743.838      75929.378      28723.85       47205.528    
    107000   107000         0.25652262     0.19600476     323.3008       267.21789      56.082908      42.852037      298.99811      656.65321      78819.919      75933.547      28537.144      47396.403    
    108000   108000         0.25567952     0.18915289     333.76657      275.65212      58.114453      42.993341      298.5509       203.86132      76831.64       75935.551      28494.461      47441.09     
    109000   109000         0.25479106     0.21099591     324.71941      272.62117      52.098246      43.143259      299.84799      143.57448      76567.705      75936.612      28618.259      47318.353    
    110000   110000         0.25429579     0.23522881     323.91967      277.18851      46.731167      43.227287      300.74749     -265.08142      74759.388      75924.574      28704.109      47220.465    
    111000   111000         0.25397537     0.27194159     310.87437      270.45202      40.422346      43.281823      299.69849     -432.59884      74035.424      75936.947      28603.991      47332.956    
    112000   112000         0.25322916     0.23818668     322.99921      276.84836      46.150846      43.409364      300.76644      221.33333      76898.325      75925.437      28705.918      47219.519    
    113000   113000         0.25272173     0.18592211     324.76828      265.64397      59.124312      43.496524      299.19008      261.01955      77089.155      75941.823      28555.466      47386.357    
    114000   114000         0.25220301     0.2228427      319.42241      270.09382      49.328593      43.585986      300.46909      644.96648      78764.06       75929.058      28677.538      47251.52     
    115000   115000         0.25165456     0.22553155     318.05585      269.31537      48.740483      43.680975      298.83938      320.67317      77348.08       75938.535      28521.995      47416.541    
    116000   116000         0.2512661      0.19648564     324.78803      268.84238      55.945648      43.748508      300.23416      706.77234      79041.481      75934.806      28655.116      47279.69     
    117000   117000         0.25051903     0.18513429     326.04946      266.67355      59.375909      43.87897       299.96412      321.64851      77350.016      75936.184      28629.343      47306.841    
    118000   118000         0.25002041     0.25260106     313.98729      270.46999      43.517302      43.966478      299.49219     -295.80877      74634.469      75934.72       28584.3        47350.42     
    119000   119000         0.24943362     0.16465677     334.62885      267.86867      66.760186      44.069908      299.26878     -13.833327      75869.133      75929.938      28562.978      47366.961    
    120000   120000         0.24874912     0.18442122     322.89504      263.28955      59.605489      44.191179      300.76091     -48.082707      75721.393      75932.744      28705.39       47227.354    
    121000   121000         0.24827725     0.20010457     317.88303      262.94917      54.933863      44.275167      298.59465     -512.95011      73683.204      75937.917      28498.637      47439.28     
    122000   122000         0.24782228     0.22679525     316.08374      267.61483      48.468903      44.356451      300.2263      -378.14298      74271.832      75933.99       28654.366      47279.624    
    123000   123000         0.24724088     0.24023919     315.13411      269.37755      45.756551      44.460757      300.18157      80.374303      76282.908      75929.616      28650.097      47279.519    
    124000   124000         0.24650741     0.20469096     323.40362      269.70063      53.702992      44.593049      299.10661     -463.4012       73902.444      75939.361      28547.5        47391.861    
    125000   125000         0.24587717     0.19102751     332.79198      275.24783      57.544156      44.70735       300.40196      256.26009      77061.412      75935          28671.131      47263.87     
    126000   126000         0.24537776     0.25141761     315.61988      271.89774      43.722144      44.798342      299.87123      103.75728      76390.472      75934.398      28620.477      47313.922    
    127000   127000         0.24507965     0.20464578     324.13763      270.42279      53.714847      44.852833      300.23796      304.26153      77268.845      75931.439      28655.479      47275.96     
    128000   128000         0.24491305     0.22147557     323.55858      273.92549      49.63309       44.883345      300.10068      183.27363      76732.916      75927.322      28642.376      47284.945    
    129000   129000         0.244843       0.23225825     328.03747      280.70861      47.328854      44.896186      299.56027      344.4742       77444.486      75930.322      28590.798      47339.524    
    130000   130000         0.24442692     0.29948535     323.72089      287.0162       36.704689      44.972612      298.71057     -351.44772      74391.954      75936.771      28509.701      47427.07     
    131000   131000         0.2441158      0.20069221     324.6441       269.87108      54.773013      45.029928      299.00308     -35.311476      75777.056      75932.271      28537.618      47394.652    
    132000   132000         0.24362872     0.18452713     331.91456      272.34328      59.571276      45.119955      300.13891     -155.1315       75251.003      75932.896      28646.025      47286.871    
    133000   133000         0.24329944     0.2215966      324.34753      274.74155      49.605981      45.18102       298.72894      365.68605      77542.597      75935.195      28511.454      47423.741    
    134000   134000         0.24288791     0.19622864     327.26868      271.24975      56.018922      45.257571      300.6373       235.53956      76963.813      75928.48       28693.593      47234.887    
    135000   135000         0.24232902     0.20018026     322.12206      267.20897      54.913091      45.361949      298.251       -378.94872      74274.694      75940.394      28465.838      47474.556    
    136000   136000         0.24205352     0.3061475      317.67437      281.76842      35.905949      45.413579      298.36229      481.95583      78054.017      75935.541      28476.46       47459.081    
    137000   137000         0.24187157     0.20986253     335.66465      283.28504      52.379607      45.447743      301.06139      430.10627      77823.231      75932.665      28734.069      47198.596    
    138000   138000         0.24161256     0.21433156     324.05919      272.77175      51.287439      45.496463      301.23661      177.95212      76713.608      75931.405      28750.792      47180.613    
    139000   139000         0.24142104     0.25992736     321.27723      278.9865       42.290727      45.532556      299.66557      375.02527      77582.957      75934.504      28600.849      47333.655    
    140000   140000         0.24153322     0.33414286     324.05398      291.15632      32.897656      45.511408      300.81655     -306.08235      74585.398      75930.808      28710.701      47220.107    
    141000   141000         0.24154476     0.24788515     329.75037      285.40516      44.345202      45.509234      299.86524      21.294455      76033.099      75939.497      28619.906      47319.592    
    142000   142000         0.2414853      0.19824163     334.29341      278.84331      55.450092      45.520438      297.92481      319.62727      77339.618      75934.67       28434.706      47499.964    
    143000   143000         0.24141221     0.28279287     328.40066      289.5294       38.871265      45.534221      300.70555      13.231621      75988.965      75930.804      28700.107      47230.697    
    144000   144000         0.24149903     0.21932842     325.99867      275.8797       50.11898       45.51785       300.23182     -69.376593      75627.033      75931.984      28654.892      47277.091    
    145000   145000         0.24138155     0.23895568     317.21363      271.2113       46.002325      45.540005      301.13195     -277.87947      74707.151      75928.592      28740.803      47187.789    
    146000   146000         0.24135964     0.29019378     326.67815      288.79823      37.879918      45.544138      298.79847      186.93939      76764.178      75942.471      28518.09       47424.381    
    147000   147000         0.2412856      0.25556697     318.3114       275.29913      43.012274      45.558114      301.38563     -158.19303      75230.933      75926.284      28765.015      47161.269    
    148000   148000         0.24120884     0.29327493     319.17314      281.69119      37.481952      45.572612      300.70774      552.78635      78360.318      75930.501      28700.316      47230.185    
    149000   149000         0.24093224     0.18394267     335.54973      275.78917      59.760558      45.624931      300.51499     -282.24262      74690.947      75931.567      28681.919      47249.648    
    150000   150000         0.24073328     0.21244435     326.99373      275.25069      51.74304       45.662638      301.1855      -315.40608      74547.934      75934.327      28745.914      47188.413    
    151000   151000         0.24045918     0.25057529     317.07804      273.20893      43.869118      45.71469       300.9565      -351.38557      74389.066      75933.61       28724.057      47209.552    
    152000   152000         0.24021648     0.16758007     331.07571      265.4801       65.59561       45.760876      298.92908      40.008361      76112.639      75936.779      28530.556      47406.223    
    153000   153000         0.23983131     0.18042179     327.9877       267.06093      60.92677       45.834368      298.35099     -526.99249      73617.103      75933.541      28475.381      47458.16     
    154000   154000         0.23948789     0.19631367     320.99378      264.99913      55.994658      45.900094      298.24909      410.03425      77743.85       75941.511      28465.655      47475.856    
    155000   155000         0.23916351     0.18548152     332.05388      272.78912      59.264755      45.962349      298.3147      -300.85173      74613.507      75935.925      28471.918      47464.007    
    156000   156000         0.23886293     0.24843332     325.13299      280.88564      44.247354      46.020187      300.15224     -375.14114      74289.044      75938.007      28647.297      47290.71     
    157000   157000         0.23861064     0.19764394     329.6743       274.05652      55.617777      46.068846      299.9966      -375.0204       74288.758      75937.191      28632.442      47304.748    
    158000   158000         0.23835063     0.18951735     323.55288      265.55018      58.002695      46.119102      297.92628      103.65065      76392.745      75937.14       28434.846      47502.294    
    159000   159000         0.23807672     0.21753142     319.68937      269.15637      50.533008      46.172161      299.88554     -347.61688      74408.413      75936.391      28621.842      47314.549    
    160000   160000         0.23786716     0.21134665     327.10674      275.09495      52.011786      46.212839      299.70194     -255.19749      74816.839      75938.58       28604.32       47334.261    
    161000   161000         0.23755284     0.17166907     329.93974      265.90656      64.033183      46.273986      301.09151      543.55448      78314.197      75924.959      28736.944      47188.015    
    162000   162000         0.23711392     0.17595065     339.65651      277.18151      62.474999      46.359644      301.34567      463.64309      77965.085      75927.105      28761.202      47165.903    
    163000   163000         0.23669183     0.17032777     335.92797      271.39054      64.537433      46.442317      299.03273      489.71593      78090.258      75937.672      28540.449      47397.223    
    164000   164000         0.23637665     0.199379       331.18601      276.05224      55.133775      46.504241      299.00564      327.36316      77371.761      75932.81       28537.862      47394.948    
    165000   165000         0.23610841     0.25293564     322.55575      279.09601      43.459739      46.557075      299.95999     -247.35994      74843.863      75931.154      28628.949      47302.205    
    166000   166000         0.23581617     0.30652084     316.06444      280.20222      35.862217      46.61477       298.526       -169.25902      75194.209      75938.2        28492.085      47446.116    
    167000   167000         0.23560671     0.19398035     327.67552      271.00732      56.668197      46.656212      299.29432      62.783838      76203.038      75927.067      28565.415      47361.652    
    168000   168000         0.23548626     0.2621649      320.91814      278.98836      41.929782      46.680077      300.30718     -36.489723      75767.165      75927.559      28662.085      47265.474    
    169000   169000         0.23541383     0.21809851     320.91796      270.51635      50.401613      46.69444       299.60443     -904.06761      71959.684      75933.586      28595.013      47338.573    
    170000   170000         0.23535833     0.23265507     323.75131      276.50318      47.248128      46.70545       299.26027     -303.12667      74600.037      75932.455      28562.165      47370.29     
    171000   171000         0.23544686     0.21944039     326.1357       276.0423       50.093407      46.687889      300.94881      241.88189      76990.716      75927.505      28723.324      47204.18     
    172000   172000         0.23538215     0.25519564     320.4983       277.42343      43.074862      46.700723      299.85463      295.47467      77230.468      75931.685      28618.893      47312.792    
    173000   173000         0.23538793     0.26479325     319.58433      278.07075      41.513583      46.699578      299.28005      315.5279       77317.501      75930.572      28564.053      47366.519    
    174000   174000         0.23528577     0.28025628     316.19533      276.97224      39.223089      46.719853      299.6486      -256.90704      74803.54       75932.796      28599.229      47333.567    
    175000   175000         0.23513179     0.20156675     327.7069       273.17153      54.535367      46.75045       301.03572     -104.90148      75467.161      75928.264      28731.619      47196.645    
    176000   176000         0.23508785     0.21106875     321.89342      269.81315      52.080268      46.759188      297.92807     -298.9632       74621.762      75935.879      28435.017      47500.862    
    177000   177000         0.23506184     0.24915795     322.94876      278.83009      44.118668      46.764362      299.21872      245.813        77017.93       75937.439      28558.199      47379.239    
    178000   178000         0.23501412     0.21482266     323.74959      272.5794       51.170192      46.773857      298.89649      464.77816      77980.508      75937.538      28527.445      47410.093    
    179000   179000         0.23476441     0.34628209     317.53614      285.79174      31.744399      46.823609      301.05121     -337.55439      74444.503      75928.25       28733.097      47195.153    
    180000   180000         0.23444865     0.18119203     323.27416      262.60638      60.667773      46.886672      299.74372     -232.42917      74909.321      75930.982      28608.307      47322.674    
    181000   181000         0.23431224     0.24738157     315.47814      271.04267      44.435471      46.913967      298.51889      255.86773      77060.278      75935.591      28491.406      47444.185    
    182000   182000         0.23426457     0.20463903     328.84224      275.12562      53.716618      46.923514      297.32824     -36.578263      75779.256      75940.039      28377.767      47562.272    
    183000   183000         0.23439922     0.29391494     316.27886      278.87853      37.400333      46.89656       300.79053      80.185614      76284.182      75931.719      28708.217      47223.502    
    184000   184000         0.23442333     0.18288957     326.55609      266.45142      60.104667      46.891735      298.60457      74.396615      76261.018      75934.002      28499.583      47434.418    
    185000   185000         0.23446763     0.23208337     319.59566      272.23115      47.364518      46.882876      300.97681      665.55911      78858.663      75933.144      28725.997      47207.148    
    186000   186000         0.23463906     0.21427683     325.13812      273.83758      51.30054       46.848623      299.20356      731.25337      79152.047      75937.764      28556.753      47381.011    
    187000   187000         0.23456494     0.25654498     314.96198      272.11368      42.848303      46.863427      297.50662      8.0167686      75972.061      75936.823      28394.792      47542.031    
    188000   188000         0.234449       0.20369387     330.0841       276.11823      53.965868      46.886601      298.6358       413.65186      77751.107      75932.867      28502.564      47430.302    
    189000   189000         0.23438248     0.21899154     328.45908      278.263        50.196079      46.899908      299.35164      600.48326      78573.235      75933.763      28570.886      47362.877    
    190000   190000         0.23432606     0.18563304     332.91888      273.70249      59.216382      46.911201      297.40477      667.12185      78870.51       75938.122      28385.072      47553.051    
    191000   191000         0.23428106     0.27114217     320.23188      279.69035      40.541525      46.920212      300.76823      206.98485      76837.665      75927.846      28706.089      47221.757    
    192000   192000         0.23422517     0.20791294     329.52573      276.65496      52.870767      46.931406      301.53839     -540.14487      73553.334      75927.584      28779.595      47147.989    
    193000   193000         0.2340299      0.19983678     327.24191      272.23444      55.007476      46.970566      299.31443      359.76231      77514.136      75932.771      28567.335      47365.437    
    194000   194000         0.23399243     0.33265652     324.93309      291.88845      33.044646      46.978087      299.78503      174.91032      76701.046      75932.213      28612.25       47319.964    
    195000   195000         0.23389151     0.29211492     327.36887      289.73807      37.630795      46.998358      300.35386     -123.05865      75393.501      75934.415      28666.54       47267.875    
    196000   196000         0.23366938     0.21535237     331.70123      280.6569       51.044328      47.043035      299.53097      122.80522      76469.38       75929.579      28588.002      47341.578    
    197000   197000         0.23358584     0.20419881     334.55557      280.72314      53.832422      47.059861      300.97568     -104.38975      75465.832      75924.685      28725.888      47198.797    
    198000   198000         0.23356515     0.23443685     317.87992      270.99089      46.889031      47.064029      298.54719     -490.85102      73780.688      75938.263      28494.107      47444.156    
    199000   199000         0.23350795     0.20316393     326.5281       272.42147      54.106635      47.075558      299.34791      117.80538      76450.363      75932.54       28570.53       47362.01     
    200000   200000         0.23366028     0.27139124     317.23109      276.72677      40.504318      47.044868      300.4765       19.466053      76016.667      75931.102      28678.246      47252.856    
    201000   201000         0.23378863     0.33299184     311.5876       278.57623      33.01137       47.019039      301.10266      391.44249      77650.624      75930.007      28738.008      47191.999    
    202000   202000         0.23378586     0.31964515     313.5246       279.13485      34.38975       47.019596      300.15112     -48.660733      75712.564      75926.456      28647.19       47279.266    
    203000   203000         0.23392988     0.30426223     316.90601      280.77758      36.128431      46.990649      299.03201      78.264882      76281.876      75937.856      28540.38       47397.477    
    204000   204000         0.23407303     0.22598566     323.42549      274.78295      48.642542      46.961911      300.7651      -417.61956      74097.221      75932.902      28705.79       47227.111    
    205000   205000         0.2341471      0.24959861     317.02075      272.97997      44.040778      46.947055      301.17321     -36.044511      75771.836      75930.273      28744.742      47185.531    
    206000   206000         0.23421481     0.24515043     325.53961      280.69972      44.839884      46.933484      300.49283      13.807321      75990.936      75930.245      28679.804      47250.441    
    207000   207000         0.23429175     0.24694349     327.18599      282.67169      44.514301      46.918071      298.6019       194.98501      76792.786      75935.714      28499.329      47436.385    
    208000   208000         0.23433133     0.20614612     325.71989      272.39599      53.323907      46.910147      299.02085      187.18572      76760.968      75938.178      28539.314      47398.864    
    209000   209000         0.23439264     0.27006625     318.10812      277.40509      40.703038      46.897875      297.80021      18.913483      76023.047      75939.912      28422.813      47517.099    
    210000   210000         0.23447009     0.28224498     316.50401      277.55729      38.946722      46.882384      300.4305       172.01864      76687.889      75931.767      28673.855      47257.912    
    211000   211000         0.23457188     0.23237923     321.26457      273.96035      47.304214      46.862039      299.83983      611.02083      78611.472      75925.681      28617.48       47308.2      
    212000   212000         0.23466115     0.20224639     329.32144      274.96934      54.352104      46.844212      297.83303      29.171409      76068.653      75940.428      28425.946      47514.482    
    213000   213000         0.23466716     0.26627872     312.24253      270.96054      41.281995      46.843013      298.96871      310.34847      77307.266      75943.104      28534.338      47408.766    
    214000   214000         0.23475183     0.204721       327.58979      273.89468      53.695111      46.826119      299.23467     -352.93777      74386.414      75937.781      28559.722      47378.058    
    215000   215000         0.23469042     0.29599047     323.64672      286.50864      37.138077      46.83837       299.01626      783.05681      79378.132      75936.142      28538.876      47397.266    
    216000   216000         0.23477789     0.27500857     321.07266      281.10112      39.971542      46.82092       298.76426     -41.707231      75759.264      75942.592      28514.825      47427.767    
    217000   217000         0.23477441     0.28740507     320.27738      282.02991      38.24747       46.821614      299.87868      193.86767      76785.321      75933.16       28621.188      47311.971    
    218000   218000         0.2348967      0.27632279     318.0426       278.26116      39.781434      46.797239      297.96609      727.67159      79131.016      75932.477      28438.646      47493.831    
    219000   219000         0.23502665     0.22269        325.04837      275.68595      49.362418      46.771363      299.08521      488.57014      78084.638      75937.088      28545.457      47391.631    
    220000   220000         0.23489527     0.19736105     332.22953      276.53203      55.697499      46.797522      300.21972      604.62888      78591.919      75934.224      28653.737      47280.487    
    221000   221000         0.23491214     0.25348303     326.92586      283.55998      43.365888      46.794162      297.37298     -25.555921      75828.751      75941.084      28382.038      47559.046    
    222000   222000         0.23487131     0.2485663      330.03756      285.81388      44.22368       46.802296      300.02626      144.68258      76569.726      75933.762      28635.273      47298.489    
    223000   223000         0.23485063     0.23287786     327.98679      280.78386      47.202929      46.806419      299.99845      612.01237      78626.819      75936.669      28632.619      47304.05     
    224000   224000         0.23486428     0.2279089      320.02591      271.79385      48.232065      46.803699      298.85707     -345.44836      74418.699      75937.145      28523.683      47413.462    
    225000   225000         0.23488353     0.22705646     327.11561      278.70247      48.413143      46.799862      298.95113      422.1094       77788.731      75933.315      28532.66       47400.655    
    226000   226000         0.23486869     0.23002769     315.77936      267.99156      47.787797      46.80282       299.15612     -186.92612      75109.562      75931.211      28552.225      47378.986    
    227000   227000         0.23482985     0.31121034     306.5853       271.26348      35.321824      46.81056       298.73666     -555.20509      73498.462      75938.911      28512.191      47426.72     
    228000   228000         0.23488002     0.21985122     328.39756      278.39776      49.9998        46.800561      299.09859     -38.476569      75767.766      75936.893      28546.734      47390.159    
    229000   229000         0.23478342     0.17967201     337.41444      276.23342      61.18102       46.819818      300.71373      310.03681      77292.357      75929.565      28700.887      47228.678    
    230000   230000         0.23468946     0.24459083     321.69692      276.75445      44.942473      46.838562      301.66244     -63.707058      75646.651      75926.68       28791.435      47135.246    
    231000   231000         0.23452454     0.18253862     336.32668      276.10646      60.220227      46.871499      299.81408     -770.51627      72547.773      75934.639      28615.022      47319.617    
    232000   232000         0.23442031     0.27459986     323.29625      283.26521      40.031035      46.892341      299.44371     -186.81504      75107.803      75928.963      28579.673      47349.29     
    233000   233000         0.23423902     0.1967778      335.39324      279.53065      55.862585      46.928633      300.72483      218.53743      76899.005      75938.407      28701.946      47236.46     
    234000   234000         0.23417095     0.25365287     324.05541      280.71855      43.336851      46.942273      300.80728     -507.26974      73699.968      75929.713      28709.816      47219.897    
    235000   235000         0.23400149     0.18624665     330.03814      271.01685      59.021285      46.976269      299.92975      582.54506      78494.009      75933.385      28626.062      47307.323    
    236000   236000         0.23385993     0.168516       333.85276      268.62146      65.231294      47.004705      297.93204      346.96188      77461.231      75936.132      28435.396      47500.737    
    237000   237000         0.23367541     0.23061523     337.20796      289.54191      47.666048      47.041822      301.03943      69.281379      76233.506      75928.974      28731.973      47197.001    
    238000   238000         0.23344592     0.1589434      340.49418      271.33423      69.159947      47.088067      300.18002     -612.09549      73242.32       75932.835      28649.949      47282.886    
    239000   239000         0.23317125     0.2166071      319.90649      269.15784      50.748645      47.143534      298.98226     -358.05002      74364.051      75937.889      28535.632      47402.257    
    240000   240000         0.23295777     0.17095695     338.9083       274.60839      64.299913      47.186735      300.88666      630.94322      78701.263      75927.902      28717.393      47210.509    
    241000   241000         0.23269538     0.24902791     321.9056       277.76389      44.141706      47.239944      299.97589      266.2644       77102.591      75932.205      28630.466      47301.739    
    242000   242000         0.23252874     0.18503451     332.18952      272.78159      59.407927      47.273798      301.02271     -64.121918      75646.465      75928.318      28730.377      47197.941    
    243000   243000         0.23229305     0.15042826     344.3039       271.22909      73.07481       47.321764      301.1822       564.90343      78415.73       75932.652      28745.599      47187.052    
    244000   244000         0.23209948     0.16446707     332.52328      265.68609      66.837191      47.361229      299.64758      95.260896      76351.372      75932.645      28599.131      47333.513    
    245000   245000         0.23195045     0.23321134     324.18353      277.0481       47.135431      47.39166       299.08508      362.26961      77525.085      75932.699      28545.444      47387.255    
    246000   246000         0.23184992     0.223826       326.85286      277.74098      49.111885      47.41221       297.56345      21.541463      76032.61       75937.923      28400.217      47537.707    
    247000   247000         0.23172992     0.23251338     322.30493      275.02801      47.276922      47.436762      299.51625      11.22525       75986.706      75937.364      28586.597      47350.767    
    248000   248000         0.23171089     0.19416749     321.24353      264.62995      56.613582      47.440658      302.58865     -583.7972       73366.281      75932.408      28879.834      47052.574    
    249000   249000         0.23159601     0.22666342     331.89232      283.39523      48.497093      47.464189      300.92989      537.28523      78299.293      75937.612      28721.518      47216.094    
    250000   250000         0.23142864     0.17618516     331.16757      268.77572      62.391842      47.498516      301.55707      496.44616      78113.464      75931.295      28781.378      47149.917    
    251000   251000         0.23128465     0.19264941     330.25359      273.1939       57.059695      47.528087      301.43472      480.53697      78046.312      75934.073      28769.7        47164.372    
    252000   252000         0.23118976     0.20999246     320.57148      268.22428      52.347198      47.547594      298.65149     -106.2646       75467.766      75934.861      28504.062      47430.798    
    253000   253000         0.23103807     0.20921756     326.37503      273.83394      52.541082      47.578811      299.40058     -452.77443      73942.564      75932.771      28575.557      47357.214    
    254000   254000         0.23086599     0.15573524     334.38489      263.80025      70.584647      47.614276      300.61373     -370.05753      74306.391      75933.009      28691.343      47241.666    
    255000   255000         0.23062945     0.21624341     320.20062      269.36662      50.833996      47.66311       298.82377     -51.886626      75711.671      75939.743      28520.504      47419.239    
    256000   256000         0.2304727      0.21455886     320.54078      269.30767      51.233107      47.695528      296.95444     -560.82483      73479.073      75944.224      28342.091      47602.132    
    257000   257000         0.2303026      0.22435406     325.48765      276.49136      48.996291      47.730754      300.65373      171.13877      76685.617      75933.363      28695.161      47238.202    
    258000   258000         0.23027006     0.21861205     324.41324      274.13003      50.283216      47.737499      298.21014      165.39128      76663.413      75936.422      28461.939      47474.484    
    259000   259000         0.2301307      0.21093259     320.20816      268.09427      52.113885      47.766407      300.06758     -555.91105      73497.347      75940.899      28639.217      47301.682    
    260000   260000         0.22991163     0.17780359     332.52989      270.70596      61.823931      47.811921      299.60646      300.97829      77255.677      75932.703      28595.207      47337.496    
    261000   261000         0.22965848     0.23197819     319.63418      272.24819      47.385993      47.864625      300.9168       207.50051      76843.42       75931.334      28720.269      47211.065    
    262000   262000         0.22951714     0.2503187      315.52365      271.60956      43.914086      47.894101      298.78652     -281.66491      74702.635      75940.715      28516.949      47423.766    
    263000   263000         0.22937125     0.23609917     318.0494       271.4905       46.558897      47.924563      299.04244      455.70022      77937.927      75934.86       28541.375      47393.484    
    264000   264000         0.22918935     0.18366994     327.85401      268.00471      59.849298      47.962598      299.1337      -8.5825781      75897.321      75935.046      28550.085      47384.961    
    265000   265000         0.22904977     0.18428912     331.85129      272.20308      59.648212      47.991827      300.36481      237.67553      76980.321      75935.599      28667.585      47268.014    
    266000   266000         0.2289517      0.20481437     331.6777       278.00706      53.670632      48.012384      300.14043     -65.09333       75646.371      75932.494      28646.17       47286.323    
    267000   267000         0.22884889     0.17945534     330.66408      269.40919      61.254887      48.033952      298.88062      9.9904847      75977.714      75933.8        28525.931      47407.869    
    268000   268000         0.22881008     0.2175106      330.87182      280.33398      50.537845      48.0421        299.60101      36.449193      76094.53       75934.314      28594.687      47339.628    
    269000   269000         0.22880396     0.22063175     325.85147      276.02856      49.822915      48.043385      300.43294     -467.68968      73884.251      75940.019      28674.088      47265.931    
    270000   270000         0.22887398     0.37617402     309.66206      280.44017      29.221893      48.028687      296.94665     -212.17226      75006.607      75939.227      28341.348      47597.879    
    271000   271000         0.22880286     0.15510128     336.6619       265.78874      70.873152      48.043616      298.76929     -533.10892      73593.989      75937.312      28515.305      47422.007    
    272000   272000         0.22876426     0.2039586      318.59738      264.70156      53.895823      48.051722      299.63533     -312.64727      74561.287      75935.554      28597.962      47337.591    
    273000   273000         0.22876003     0.22076339     323.40238      273.60918      49.793205      48.052611      300.80889      249.8365       77024.788      75926.611      28709.969      47216.642    
    274000   274000         0.22869711     0.28635375     323.51741      285.12951      38.387893      48.065833      300.5795       200.26482      76810.038      75929.758      28688.076      47241.682    
    275000   275000         0.2286054      0.22451981     329.3915       280.43138      48.96012       48.085115      300.71599      145.21915      76570.926      75932.603      28701.103      47231.501    
    276000   276000         0.22857277     0.18847884     337.72797      279.40569      58.322287      48.091979      301.38333     -516.21396      73665.144      75934.204      28764.796      47169.408    
    277000   277000         0.22852529     0.29044747     321.20193      283.35509      37.846833      48.101971      299.66541      75.782368      76275.865      75942.757      28600.833      47341.924    
    278000   278000         0.2285714      0.29463743     311.81734      274.50872      37.308623      48.092267      298.85659     -402.25472      74167.046      75935.189      28523.637      47411.552    
    279000   279000         0.22863768     0.21455699     325.39411      274.16055      51.233553      48.078326      300.26793     -452.84613      73940.788      75931.309      28658.339      47272.97     
    280000   280000         0.22869082     0.25026735     326.32239      282.39929      43.923096      48.067153      300.74057      351.71895      77472.131      75926.122      28703.449      47222.674    
    281000   281000         0.2287293      0.26307353     322.31072      280.52576      41.784959      48.059067      299.13865     -147.33861      75289.681      75937.319      28550.557      47386.762    
    282000   282000         0.22875415     0.30539196     317.41052      281.41574      35.994782      48.053847      300.44643      374.8193       77581.962      75934.413      28675.376      47259.038    
    283000   283000         0.22874245     0.27418759     317.24011      277.14888      40.091226      48.056305      299.70556     -131.10577      75359.104      75935.39       28604.665      47330.725    
    284000   284000         0.22880328     0.22651745     328.32666      279.79831      48.528343      48.043529      299.38466     -384.53975      74237.636      75927.912      28574.038      47353.874    
    285000   285000         0.22875805     0.2042087      330.82172      276.9919       53.829816      48.053028      300.52218      328.33005      77376.909      75933.707      28682.605      47251.103    
    286000   286000         0.22871592     0.2195635      326.97777      276.91245      50.065319      48.061879      300.30606      167.26407      76673.747      75938.524      28661.979      47276.545    
    287000   287000         0.22870147     0.24525062     313.09063      268.26906      44.821565      48.064915      298.57265      409.63881      77741.108      75940.507      28496.537      47443.97     
    288000   288000         0.22868156     0.18942856     334.36441      276.33453      58.029882      48.069099      298.43224      882.03833      79813.475      75936.405      28483.136      47453.269    
    289000   289000         0.22876483     0.27133934     327.05313      286.54106      40.512065      48.051604      301.24059      46.221074      76130.581      75927.412      28751.173      47176.239    
    290000   290000         0.22887936     0.2094176      322.98063      270.48973      52.490892      48.027558      300.41254      171.62017      76685.028      75930.658      28672.141      47258.517    
    291000   291000         0.22888456     0.25702189     321.13508      278.36629      42.768796      48.026467      297.96027     -750.82128      72635.727      75936.022      28438.09       47497.933    
    292000   292000         0.22883948     0.25182469     318.73039      275.07892      43.651466      48.035927      298.95912      119.5029       76462.1        75936.815      28533.422      47403.393    
    293000   293000         0.22875713     0.20767798     331.62031      278.68972      52.930584      48.053221      300.63789     -295.19468      74634.229      75931.781      28693.649      47238.132    
    294000   294000         0.22868593     0.19208717     331.30918      274.08247      57.226709      48.068182      300.02843      606.12203      78593.023      75928.764      28635.481      47293.284    
    295000   295000         0.22866863     0.25021556     323.20141      279.26922      43.932187      48.071818      298.09146      483.74932      78070.042      75943.683      28450.611      47493.072    
    296000   296000         0.22866716     0.26297524     320.02882      278.22824      41.800578      48.072127      299.72016      408.55063      77733.102      75937.285      28606.058      47331.227    
    297000   297000         0.22866252     0.18845656     331.84191      273.51273      58.329181      48.073103      299.69903     -296.12497      74635.958      75937.599      28604.042      47333.558    
    298000   298000         0.22871674     0.29914188     314.27897      277.53214      36.746833      48.061706      299.41422      86.726485      76315.291      75934.078      28576.859      47357.219    
    299000   299000         0.22879461     0.25155902     325.95923      282.26167      43.697566      48.045349      299.8159       230.18371      76944.822      75933.031      28615.196      47317.835    
    300000   300000         0.22880224     0.19710905     331.33033      275.56162      55.768707      48.043747      299.51552     -105.85737      75473.891      75939.196      28586.527      47352.669    
    301000   301000         0.22868003     0.19640807     334.26769      278.29994      55.967745      48.069421      299.90597      301.34296      77259.091      75934.514      28623.793      47310.721    
    302000   302000         0.22855371     0.21880185     323.71938      273.47979      50.239597      48.095988      300.04682     -536.71511      73570.875      75930.05       28637.236      47292.813    
    303000   303000         0.22847737     0.19553302     336.39661      280.1784       56.218211      48.11206       299.57007     -28.981151      75802.501      75929.89       28591.734      47338.157    
    304000   304000         0.22844608     0.25450704     318.13073      274.93933      43.191406      48.11865       298.23901     -449.54735      73955.766      75931.788      28464.694      47467.094    
    305000   305000         0.22843767     0.25327279     326.30811      282.90623      43.401886      48.120422      300.72162      243.60213      76998.796      75928.023      28701.641      47226.383    
    306000   306000         0.22849553     0.26244912     324.74464      282.86026      41.884372      48.108235      300.0616      -476.99247      73835.878      75932.537      28638.647      47293.89     
    307000   307000         0.22844372     0.23777003     321.04952      274.8178       46.231717      48.119146      298.72593     -151.54431      75271.166      75937.291      28511.167      47426.124    
    308000   308000         0.22835034     0.1868455      327.50255      268.67043      58.832119      48.138824      299.43759     -505.40456      73711.469      75933.015      28579.089      47353.926    
    309000   309000         0.22837219     0.18763741     330.69713      272.1133       58.583823      48.134217      300.46892      97.342126      76366.229      75938.354      28677.522      47260.832    
    310000   310000         0.22837447     0.20268116     330.09835      275.86284      54.235512      48.133738      299.20416     -279.43824      74702.013      75930.306      28556.81       47373.496    
    311000   311000         0.22840863     0.23673392     323.70375      277.26969      46.434058      48.126539      299.0001       66.951435      76232.293      75938.002      28537.334      47400.668    
    312000   312000         0.228438       0.22095482     328.4977       278.74763      49.750066      48.120352      299.69259     -112.24272      75447.031      75940.403      28603.427      47336.977    
    313000   313000         0.22849028     0.24824354     322.70513      278.42395      44.28118       48.109341      299.59649      500.55238      78132.774      75932.555      28594.256      47338.3      
    314000   314000         0.22864727     0.25222606     322.69337      279.11136      43.582003      48.076309      301.75186      55.966747      76173.659      75927.653      28799.969      47127.684    
    315000   315000         0.2287032      0.29081954     316.86334      279.06493      37.798412      48.064552      302.03948      832.9065       79585.624      75924.516      28827.42       47097.096    
    316000   316000         0.22885665     0.25498861     315.57786      272.46803      43.109835      48.032325      300.41232     -56.430737      75681.584      75929.63       28672.12       47257.51     
    317000   317000         0.2289729      0.3027222      309.40117      273.08894      36.312226      48.007938      299.02324     -125.80848      75384.974      75937.975      28539.542      47398.433    
    318000   318000         0.22904148     0.20061113     320.37469      265.57954      54.795149      47.993563      298.86043     -581.30947      73381.288      75936.481      28524.004      47412.478    
    319000   319000         0.22914964     0.36851697     317.57711      287.74805      29.829066      47.970911      299.28064      513.26778      78192.035      75935.925      28564.109      47371.816    
    320000   320000         0.22927756     0.23077494     325.60908      277.97602      47.633062      47.944147      298.68057      129.15767      76503.296      75935.573      28506.837      47428.736    
    321000   321000         0.22929259     0.23135023     322.40418      274.88957      47.514614      47.941004      299.75255     -174.06149      75168.902      75934.003      28609.15       47324.853    
    322000   322000         0.22938112     0.20760018     327.13576      274.18534      52.950419      47.922501      300.33664     -597.67496      73303.221      75930.349      28664.896      47265.453    
    323000   323000         0.22941525     0.21729649     328.6526       278.06496      50.58764       47.91537       299.7548      -394.76549      74195.044      75930.268      28609.364      47320.903    
    324000   324000         0.22944097     0.34670638     319.69695      287.9914       31.705551      47.909999      300.40479      298.69061      77248.942      75936.023      28671.402      47264.621    
    325000   325000         0.22941644     0.20106187     326.69158      272.01927      54.672308      47.915123      299.91086     -373.35086      74290.696      75931.789      28624.259      47307.53     
    326000   326000         0.22935868     0.22783525     329.60043      281.35278      48.247655      47.927188      299.42516      189.80607      76773.899      75939.591      28577.903      47361.688    
    327000   327000         0.22935069     0.37960468     311.66317      282.70536      28.957801      47.928859      299.64824      290.32312      77215.466      75939.327      28599.194      47340.133    
    328000   328000         0.22938921     0.23759082     322.4473       276.18071      46.26659       47.920811      298.23367      268.76169      77114.808      75933.444      28464.184      47469.26     
    329000   329000         0.22936607     0.32437742     318.12598      284.23793      33.888046      47.925645      299.70532     -647.72747      73086.456      75933.595      28604.642      47328.952    
    330000   330000         0.2293214      0.18684175     331.71414      272.88084      58.833302      47.934981      300.29213     -344.13843      74418.833      75931.521      28660.649      47270.872    
    331000   331000         0.22928648     0.18284311     337.92385      277.80391      60.119941      47.94228       298.82866     -8.8213203      75893.035      75931.81       28520.972      47410.838    
    332000   332000         0.22924812     0.21670946     324.64158      273.91691      50.724675      47.950304      298.76199     -353.10722      74383.555      75935.666      28514.608      47421.058    
    333000   333000         0.22926071     0.2139099      328.01969      276.63116      51.388537      47.94767       300.36331     -13.630865      75872.439      75932.355      28667.442      47264.913    
    334000   334000         0.22921647     0.18048007     326.55747      265.65037      60.907094      47.956925      298.83564      206.02911      76838.607      75932.989      28521.637      47411.352    
    335000   335000         0.22915268     0.25097918     324.92814      281.12961      43.798521      47.970273      300.67467     -227.52209      74928.129      75928.221      28697.159      47231.062    
    336000   336000         0.22910797     0.18233396     336.23501      275.9472       60.287818      47.979636      300.4467      -423.93018      74065.678      75929.097      28675.401      47253.695    
    337000   337000         0.22899426     0.19461436     332.23463      275.75105      56.483584      48.003461      299.65771      4.5045172      75950.518      75930.718      28600.098      47330.62     
[...]
    931000   931000         0.23042636     0.44614739     308.64315      284.00439      24.638756      47.705119      300.55331     -59.994547      75671.836      75935.547      28685.577      47249.97     
    932000   932000         0.23045942     0.21953164     323.28813      273.21555      50.072584      47.698275      299.72469     -458.15231      73926.607      75940.453      28606.491      47333.962    
    933000   933000         0.23044321     0.21485222     330.14696      278.98381      51.163153      47.701631      299.39502     -70.407872      75622.348      75931.832      28575.027      47356.805    
    934000   934000         0.23042411     0.21065107     331.74561      279.56208      52.183531      47.705584      299.00381     -514.48947      73673.473      75934.953      28537.688      47397.264    
    935000   935000         0.23043695     0.25167642     329.47329      285.79611      43.677182      47.702926      301.3082      -14.025439      75871.62       75933.27       28757.625      47175.645    
    936000   936000         0.23047098     0.23348752     332.47852      285.39885      47.079675      47.695884      300.46493     -0.067258012    75939.082      75939.377      28677.141      47262.236    
    937000   937000         0.2304745      0.24866282     327.74021      283.5337       44.206515      47.695155      300.32314     -197.07115      75067.777      75934.019      28663.608      47270.411    
    938000   938000         0.23046058     0.27597151     326.32692      286.49484      39.832071      47.698036      300.05536     -302.34875      74604.795      75933.793      28638.051      47295.742    
    939000   939000         0.23044576     0.19770775     333.68232      278.08249      55.599827      47.701102      300.41511     -33.993415      75784.332      75933.753      28672.386      47261.367    
    940000   940000         0.23042352     0.23943637     321.1457       275.23573      45.909972      47.705707      300.15936      762.05628      79281.841      75932.161      28647.977      47284.184    
    941000   941000         0.230444       0.18254001     334.53698      274.31721      60.219767      47.701468      301.31898      0.84759106     75930.156      75926.431      28758.654      47167.777    
    942000   942000         0.23044352     0.20041522     327.64761      272.7989       54.848712      47.701566      300.69284      21.137082      76025.579      75932.669      28698.893      47233.776    
    943000   943000         0.23043752     0.18255384     331.23068      271.01547      60.215204      47.702808      299.1234       277.55008      77156.359      75936.365      28549.102      47387.263    
    944000   944000         0.23039764     0.17604129     339.39194      276.94911      62.442832      47.711065      300.22879      403.5237       77706.374      75932.653      28654.603      47278.05     
    945000   945000         0.23038419     0.34746125     314.43112      282.79445      31.63667       47.71385       299.95454      36.067395      76092.685      75934.148      28628.428      47305.72     
    946000   946000         0.23041431     0.23493281     328.11522      281.32517      46.790045      47.707614      299.77555      180.88105      76730.554      75935.477      28611.345      47324.131    
    947000   947000         0.23043317     0.25794177     318.731        276.11473      42.616273      47.703708      302.14353     -419.85467      74084.319      75929.824      28837.351      47092.473    
    948000   948000         0.23042847     0.26695276     328.15266      286.9749       41.17776       47.704681      300.62322      127.0345       76489.129      75930.739      28692.248      47238.491    
    949000   949000         0.23045523     0.26377481     322.84501      281.17114      41.673868      47.699142      298.11329      678.30957      78918.062      75936.497      28452.694      47483.803    
    950000   950000         0.23047336     0.24611306     327.17688      282.51238      44.664499      47.69539       300.39665     -262.60332      74778.436      75932.73       28670.625      47262.106    
    951000   951000         0.23047625     0.27170894     327.96188      287.50492      40.456957      47.694791      300.36857      884.29842      79818.297      75931.292      28667.944      47263.348    
    952000   952000         0.23047809     0.30775676     316.22357      280.50537      35.718198      47.694411      299.8826      -3.390957       75924.056      75938.961      28621.562      47317.4      
    953000   953000         0.23047444     0.20755502     327.36561      274.40367      52.961941      47.695167      298.61461      66.23133       76230.073      75938.948      28500.542      47438.406    
    954000   954000         0.23046949     0.21539063     324.92965      273.89439      51.035261      47.696192      298.71778      152.52133      76605.27       75934.85       28510.389      47424.461    
    955000   955000         0.23048668     0.21435197     325.81662      274.53406      51.282556      47.692634      299.91428      242.19467      76994.066      75929.48       28624.586      47304.893    
    956000   956000         0.23048855     0.27236885     325.71306      285.35412      40.358936      47.692248      298.69219     -480.7804       73825.709      75939.018      28507.946      47431.072    
    957000   957000         0.23048495     0.20837045     335.47227      282.71759      52.754683      47.692992      299.54344      0.33291301     75931.877      75930.414      28589.192      47341.222    
    958000   958000         0.23050964     0.29277104     321.17371      283.62725      37.546462      47.687884      299.86211      118.72584      76451.949      75930.08       28619.607      47310.473    
    959000   959000         0.23053379     0.32104572     313.82589      279.58617      34.239724      47.682888      300.16071     -78.66814       75588.263      75934.056      28648.106      47285.949    
    960000   960000         0.23058846     0.22417176     324.06681      275.03067      49.036136      47.671583      301.18072     -721.03583      72756.841      75926.212      28745.458      47180.754    
    961000   961000         0.23063289     0.2706755      318.13185      277.52043      40.611421      47.662398      299.86593     -199.02501      75058.85       75933.681      28619.971      47313.71     
    962000   962000         0.23063949     0.17493523     332.56864      269.731        62.83764       47.661036      300.61332     -198.71165      75061.437      75934.89       28691.304      47243.587    
    963000   963000         0.230643       0.23954896     320.85384      274.96545      45.888392      47.66031       298.56418      51.490304      76165.05       75938.72       28495.729      47442.991    
    964000   964000         0.23063985     0.23040402     316.41894      268.7092       47.709744      47.660961      300.32176      848.65646      79662.586      75932.248      28663.477      47268.771    
    965000   965000         0.23065652     0.22954546     321.14173      273.25354      47.88819       47.657516      300.29277      256.85724      77065.099      75936.062      28660.709      47275.352    
    966000   966000         0.23064842     0.24142109     322.59011      277.05756      45.532547      47.65919       299.80221     -450.15462      73960.524      75939.215      28613.89       47325.325    
    967000   967000         0.23063561     0.16215755     335.0218       267.23268      67.789113      47.661837      300.79437      175.08827      76699.609      75929.994      28708.584      47221.41     
    968000   968000         0.23063708     0.20048134     328.75083      273.92021      54.830623      47.661532      300.88703     -322.52558      74516.233      75933.921      28717.428      47216.493    
    969000   969000         0.23066244     0.23815004     327.28585      281.1279       46.157947      47.656293      299.87586      299.53822      77246.051      75929.407      28620.919      47308.487    
    970000   970000         0.23066892     0.26550862     314.4033       273.00157      41.401733      47.654954      299.2294      -203.22769      75042.045      75935.348      28559.219      47376.129    
    971000   971000         0.23069751     0.35598217     313.18414      282.30473      30.879403      47.649048      300.47639      266.78531      77104.623      75931.946      28678.235      47253.712    
    972000   972000         0.2307034      0.20328124     329.54549      275.47008      54.075411      47.647832      299.55191     -326.26271      74504.35       75938.464      28590          47348.464    
    973000   973000         0.23067751     0.16469192     340.16725      273.42131      66.74594       47.653181      299.41201      173.68262      76696.678      75933.242      28576.648      47356.594    
    974000   974000         0.23063619     0.17455479     333.34608      270.37149      62.974593      47.661717      300.28399     -228.25854      74931.584      75934.913      28659.871      47275.042    
    975000   975000         0.23059277     0.19759147     331.98532      276.35277      55.632548      47.670692      298.39709      269.53467      77119.713      75934.952      28479.781      47455.171    
    976000   976000         0.23056071     0.23121252     325.44643      277.90352      47.542912      47.67732       300.92626     -288.70272      74666.852      75935.868      28721.172      47214.696    
    977000   977000         0.23053908     0.2166713      324.99091      274.25731      50.733609      47.681794      300.33889      105.42947      76392.317      75928.893      28665.112      47263.781    
    978000   978000         0.23052678     0.21691788     320.62939      269.95345      50.675938      47.684337      299.93875      14.527232      75992.61       75928.754      28626.921      47301.833    
    979000   979000         0.23050543     0.25932215     326.25854      283.86911      42.389425      47.688754      299.41777      331.80089      77394.899      75936.441      28577.197      47359.244    
    980000   980000         0.23049804     0.20936539     325.28226      272.77827      52.503984      47.690284      300.61529      361.57253      77518.279      75928.958      28691.492      47237.465    
    981000   981000         0.2304921      0.21549769     325.15434      274.14443      51.009907      47.691512      298.59059     -29.6498        75805.729      75936.057      28498.25       47437.807    
    982000   982000         0.23048195     0.29108526     309.58314      271.81924      37.763908      47.693613      299.68389     -194.89734      75071.385      75928.072      28602.597      47325.475    
    983000   983000         0.23050784     0.27748761     315.54345      275.929        39.614443      47.688256      298.81581      449.45184      77910.058      75934.457      28519.745      47414.712    
    984000   984000         0.23051022     0.23635548     325.77036      279.26195      46.508407      47.687763      300.33148      163.79669      76649.777      75929.795      28664.404      47265.391    
    985000   985000         0.2305269      0.20936417     321.83844      269.33415      52.504289      47.684312      298.41823      74.721161      76263.245      75934.802      28481.799      47453.003    
    986000   986000         0.23053202     0.24659356     323.54509      278.96762      44.57747       47.683254      299.04355      29.26805       76066.627      75937.977      28541.481      47396.496    
    987000   987000         0.23052047     0.24573573     322.23953      277.50645      44.733083      47.685642      299.44283     -345.29145      74415.997      75933.753      28579.589      47354.164    
    988000   988000         0.2305139      0.21228265     327.2596       275.47714      51.782456      47.687001      297.78619     -193.44703      75083.394      75933.706      28421.476      47512.23     
    989000   989000         0.2304747      0.21557316     329.32768      278.33563      50.992047      47.695113      298.9479      -566.62966      73448.118      75938.785      28532.352      47406.433    
    990000   990000         0.23047026     0.25346127     321.0146       277.64499      43.369612      47.696033      299.07358     -825.18289      72311.005      75938.163      28544.347      47393.816    
    991000   991000         0.2304607      0.18970732     331.31576      273.37115      57.944611      47.69801       299.98419      16.291986      76001.154      75929.541      28631.258      47298.284    
    992000   992000         0.23045417     0.20845607     326.94714      274.21413      52.733013      47.699361      299.20691     -699.95975      72861.531      75938.261      28557.072      47381.188    
    993000   993000         0.23042883     0.17661787     330.17606      267.93708      62.238983      47.704607      299.4507       490.22648      78084.909      75930.079      28580.341      47349.738    
    994000   994000         0.23040448     0.2918409      314.89821      277.23208      37.666129      47.70965       299.1618      -683.82243      72931.174      75936.971      28552.767      47384.204    
    995000   995000         0.23041936     0.23233558     320.82521      273.51211      47.3131        47.706569      300.79717     -57.524463      75673.823      75926.676      28708.851      47217.825    
    996000   996000         0.23042664     0.24132888     322.18582      276.63588      45.549943      47.705061      300.76833      77.243471      76276.398      75936.868      28706.099      47230.77     
    997000   997000         0.23041235     0.17795587     338.97538      277.20435      61.771026      47.70802       300.82847     -117.1012       75412.25       75926.978      28711.838      47215.139    
    998000   998000         0.23042414     0.33524963     312.22559      279.43654      32.78905       47.705579      299.16995     -466.68636      73889.259      75940.617      28553.545      47387.072    
    999000   999000         0.23045825     0.24662134     316.01012      271.43767      44.572449      47.698518      298.90414     -52.058628      75710.468      75939.296      28528.176      47411.12     
   1000000   1000000        0.23047969     0.19719407     331.18496      275.4403       55.744663      47.69408       300.2909      -171.47237      75182.131      75935.852      28660.531      47275.32     
   1001000   1001000        0.23048954     0.24926073     324.19217      280.09169      44.100476      47.692042      299.14872     -582.06281      73382.043      75940.547      28551.519      47389.028    
   1002000   1002000        0.23050886     0.19929209     331.04916      275.89134      55.157817      47.688044      300.54831      378.32368      77592.685      75929.733      28685.1        47244.633    
   1003000   1003000        0.23053038     0.22084863     324.77276      274.99877      49.773987      47.683594      298.81585     -13.348267      75881.836      75940.509      28519.749      47420.761    
   1004000   1004000        0.23057582     0.34085933     312.66012      280.4107       32.249423      47.674196      299.83381     -416.87316      74096.002      75928.402      28616.905      47311.497    
   1005000   1005000        0.23060689     0.2448051      328.3696       283.46646      44.903137      47.667773      300.38645      181.12053      76728.679      75932.549      28669.65       47262.898    
   1006000   1006000        0.23062702     0.29096261     311.93612      274.15629      37.779827      47.663612      298.91485     -108.31171      75458.598      75934.691      28529.198      47405.494    
   1007000   1007000        0.23065345     0.30129512     312.98816      276.50395      36.484218      47.65815       298.6935       87.400259      76324.385      75940.21       28508.072      47432.138    
   1008000   1008000        0.2306963      0.30577756     315.65013      279.70074      35.94939       47.649299      301.17831     -23.369148      75823.584      75926.305      28745.228      47181.077    
   1009000   1009000        0.23070416     0.20427885     331.87445      278.06312      53.81133       47.647675      299.62696      437.36981      77855.154      75932.659      28597.163      47335.496    
   1010000   1010000        0.23072304     0.21965395     328.58426      278.53956      50.044704      47.643777      300.46926      751.18861      79237.104      75935.194      28677.554      47257.64     
   1011000   1011000        0.23072208     0.20979834     325.21824      272.82261      52.395632      47.643975      297.94102      454.16347      77936.846      75940.533      28436.252      47504.281    
   1012000   1012000        0.23070409     0.19451601     336.55093      280.03879      56.512144      47.647688      300.10053     -64.261078      75648.577      75931.042      28642.362      47288.68     
   1013000   1013000        0.23070863     0.17460416     335.31079      272.354        62.956786      47.646752      299.31272     -278.55459      74714.33       75938.739      28567.171      47371.568    
   1014000   1014000        0.23071037     0.29355786     323.44958      286.00375      37.445827      47.646392      299.27836     -493.51283      73762.428      75931.703      28563.892      47367.812    
   1015000   1015000        0.23076099     0.32073555     318.48116      284.20832      34.272836      47.635941      301.1255       144.09567      76566.47       75933.086      28740.188      47192.899    
   1016000   1016000        0.23078884     0.31678142     322.34963      287.64899      34.700637      47.630193      299.98669     -597.16426      73308.054      75932.937      28631.496      47301.441    
   1017000   1017000        0.23083685     0.44693023     311.39391      286.79831      24.595599      47.620285      298.88258      825.13134      79566.079      75939.147      28526.118      47413.03     
   1018000   1018000        0.23088679     0.29511348     319.8628       282.61436      37.24844       47.609986      300.97126      278.94736      77150.834      75924.698      28725.467      47199.231    
   1019000   1019000        0.23092821     0.28942563     316.45536      278.47491      37.980454      47.601446      299.75847      116.08308      76441.507      75931.254      28609.715      47321.54     
   1020000   1020000        0.23095811     0.30060337     315.76759      279.19942      36.568175      47.595284      299.91789      246.845        77022.741      75937.713      28624.93       47312.783    
Loop time of 12958.5 on 32 procs for 1000000 steps with 32020 atoms

Performance: 6.667 ns/day, 3.600 hours/ns, 77.169 timesteps/s, 2.471 Matom-step/s
99.4% CPU use with 32 MPI tasks x 1 OpenMP threads

MPI task timing breakdown:
Section |  min time  |  avg time  |  max time  |%varavg| %total
---------------------------------------------------------------
Pair    | 7839.3     | 8519.6     | 9106.4     | 320.5 | 65.75
Bond    | 165.03     | 176.29     | 192.32     |  45.6 |  1.36
Kspace  | 2234.5     | 2860       | 3459.3     | 548.7 | 22.07
Neigh   | 536.78     | 554.7      | 559.93     |  23.8 |  4.28
Comm    | 490.72     | 631.28     | 818.46     | 335.0 |  4.87
Output  | 0.09678    | 0.11823    | 0.36058    |  12.9 |  0.00
Modify  | 111.53     | 189.55     | 304.55     | 476.7 |  1.46
Other   |            | 27.01      |            |       |  0.21

Nlocal:        1000.62 ave        1049 max         948 min
Histogram: 1 0 2 4 8 7 4 5 0 1
Nghost:        11949.3 ave       12044 max       11854 min
Histogram: 3 3 3 5 1 3 3 8 1 2
Neighs:         610655 ave      662238 max      556485 min
Histogram: 1 0 2 5 5 11 6 1 0 1

Total # of neighbors = 19540947
Ave neighs/atom = 610.27317
Ave special neighs/atom = 10.738289
Neighbor list builds = 40172
Dangerous builds = 0
Total wall time: 3:40:21
