units real
atom_style full
boundary p p p

# styles
pair_style lj/charmm/coul/long 8.0 12.0
kspace_style pppm 1e-6
dielectric 1.000000
bond_style harmonic
angle_style harmonic
dihedral_style fourier
improper_style cvff
special_bonds amber
pair_modify mix arithmetic
neighbor 2.0 bin
neigh_modify delay 0 every 1 check yes

# system definition
read_data ../final.data
Reading data file ...
  orthogonal box = (-35.667086 -39.652884 -27.891195) to (35.667086 39.652884 27.891195)
  4 by 4 by 2 MPI processor grid
  reading atoms ...
  30020 atoms
  reading velocities ...
  30020 velocities
  scanning bonds ...
  3 = max bonds/atom
  scanning angles ...
  6 = max angles/atom
  scanning dihedrals ...
  24 = max dihedrals/atom
  orthogonal box = (-35.667086 -39.652884 -27.891195) to (35.667086 39.652884 27.891195)
  4 by 4 by 2 MPI processor grid
  reading bonds ...
  30010 bonds
  reading angles ...
  56000 angles
  reading dihedrals ...
  75910 dihedrals
Finding 1-2 1-3 1-4 neighbors ...
  special bond factors lj:    0        0        0.5     
  special bond factors coul:  0        0        0.8333333333333334
     4 = max # of 1-2 neighbors
    11 = max # of 1-3 neighbors
    22 = max # of 1-4 neighbors
    26 = max # of special neighbors
  special bonds CPU = 0.073 seconds
  read_data CPU = 0.628 seconds
# do not reset velocities

# vars
variable tLog equal 1000
variable nEvery equal 10
variable nRepeat equal 100
variable boolDump equal 0
variable tDump equal 1000

variable tPreeq equal 10000
variable tPrerun equal 10000
variable tTCrun equal 1500000

variable diffT_delay equal ${tPreeq}+${tPreeq}
variable diffT_delay equal 10000+${tPreeq}
variable diffT_delay equal 10000+10000
# heatflux of 0.05 give good results over 1 ns
variable heat_flux equal 0.02
variable heat_flux_neg equal -1*v_heat_flux

# defining region
variable hot_lo equal (lx*0)+xlo
variable hot_hi equal (lx*0.05)+xlo
variable cold_lo equal (lx*0.50)+xlo
variable cold_hi equal (lx*0.55)+xlo

print "DEBUG: ${hot_lo} ${hot_hi} ${cold_lo} ${cold_hi}"
DEBUG: -35.6670855376846 -32.1003769839161 0 3.56670855376846

# define heating and cooling block regions
region hot block ${hot_lo} ${hot_hi} INF INF INF INF units box
region hot block -35.6670855376846 ${hot_hi} INF INF INF INF units box
region hot block -35.6670855376846 -32.1003769839161 INF INF INF INF units box
region cold block ${cold_lo} ${cold_hi} INF INF INF INF units box
region cold block 0 ${cold_hi} INF INF INF INF units box
region cold block 0 3.56670855376846 INF INF INF INF units box
compute Thot all temp/region hot
compute Tcold all temp/region cold

# STEP 1 - 1st equilibration (nve)
# 1a - thermo output for md2
thermo_style custom step time temp c_Thot c_Tcold press enthalpy etotal ke pe
thermo_modify colname c_Thot Temp_hot colname c_Tcold Temp_cold
thermo_modify flush yes
thermo ${tLog}
thermo 1000

# 1b - nve equilibration
timestep 1.0
fix md2 all nve
run ${tPreeq}
run 10000

CITE-CITE-CITE-CITE-CITE-CITE-CITE-CITE-CITE-CITE-CITE-CITE-CITE

Your simulation uses code contributions which should be cited:

- Type Label Framework: https://doi.org/10.1021/acs.jpcb.3c08419

@Article{Gissinger24,
 author = {Jacob R. Gissinger, Ilia Nikiforov, Yaser Afshar, Brendon Waters, Moon-ki Choi, Daniel S. Karls, Alexander Stukowski, Wonpil Im, Hendrik Heinz, Axel Kohlmeyer, and Ellad B. Tadmor},
 title = {Type Label Framework for Bonded Force Fields in LAMMPS},
 journal = {J. Phys. Chem. B},
 year =    2024,
 volume =  128,
 number =  13,
 pages =   {3282–-3297}
}

CITE-CITE-CITE-CITE-CITE-CITE-CITE-CITE-CITE-CITE-CITE-CITE-CITE

PPPM initialization ...
  using 12-bit tables for long-range coulomb (src/kspace.cpp:342)
  G vector (1/distance) = 0.25787445
  grid = 54 60 45
  stencil order = 5
  estimated absolute RMS force accuracy = 0.00038404524
  estimated relative force accuracy = 1.1565408e-06
  using double precision FFTW3
  3d grid and FFT values/proc = 12760 6480
Generated 21 of 21 mixed pair_coeff terms from arithmetic mixing rule
Neighbor list info ...
  update: every = 1 steps, delay = 0 steps, check = yes
  max neighbors/atom: 2000, page size: 100000
  master list distance cutoff = 14
  ghost atom cutoff = 14
  binsize = 7, bins = 11 12 8
  1 neighbor lists, perpetual/occasional/extra = 1 0 0
  (1) pair lj/charmm/coul/long, perpetual
      attributes: half, newton on
      pair build: half/bin/newton
      stencil: half/bin/3d
      bin: standard
Per MPI rank memory allocation (min/avg/max) = 20.61 | 20.98 | 21.22 Mbytes
   Step          Time           Temp         Temp_hot      Temp_cold        Press         Enthalpy        TotEng         KinEng         PotEng    
         0   0              297.69673      295.86983      302.27091      213.30029      130639.82      129658.15      26638.183      103019.96    
      1000   1000           299.11432      307.70928      293.38852      126.92638      130241.92      129657.77      26765.029      102892.74    
      2000   2000           297.98715      303.47186      291.22762     -255.02617      128480.62      129654.33      26664.17       102990.16    
      3000   3000           298.11551      300.89535      300.5834      -298.19502      128287.58      129659.96      26675.655      102984.3     
      4000   4000           299.95835      303.98638      298.02837      311.10856      131087.29      129655.47      26840.554      102814.92    
      5000   5000           298.69842      297.14908      297.53584      392.25071      131463.1       129657.84      26727.814      102930.03    
      6000   6000           296.34515      295.86634      291.02343     -179.41996      128831.71      129657.46      26517.242      103140.22    
      7000   7000           296.98053      290.02883      293.93426      223.508        130686.36      129657.71      26574.096      103083.61    
      8000   8000           299.75918      301.18145      316.81606     -23.87276       129539.12      129648.99      26822.733      102826.26    
      9000   9000           299.56213      305.95841      309.26762      145.93954      130328.32      129656.66      26805.1        102851.56    
     10000   10000          299.2864       291.85913      297.96771     -387.29479      127875.8       129658.25      26780.428      102877.82    
Loop time of 150.592 on 32 procs for 10000 steps with 30020 atoms

Performance: 5.737 ns/day, 4.183 hours/ns, 66.404 timesteps/s, 1.993 Matom-step/s
98.9% CPU use with 32 MPI tasks x 1 OpenMP threads

MPI task timing breakdown:
Section |  min time  |  avg time  |  max time  |%varavg| %total
---------------------------------------------------------------
Pair    | 65.006     | 71.675     | 79.452     |  45.2 | 47.60
Bond    | 1.4847     | 1.6826     | 1.8125     |   5.6 |  1.12
Kspace  | 54.082     | 61.884     | 69.45      |  49.5 | 41.09
Neigh   | 4.9293     | 5.0618     | 5.2002     |   3.9 |  3.36
Comm    | 7.0974     | 8.7571     | 9.7702     |  24.4 |  5.82
Output  | 0.0010688  | 0.0014263  | 0.0034145  |   1.0 |  0.00
Modify  | 0.048894   | 0.05329    | 0.067658   |   1.5 |  0.04
Other   |            | 1.477      |            |       |  0.98

Nlocal:        938.125 ave        1003 max         881 min
Histogram: 3 1 2 6 5 7 3 2 2 1
Nghost:        10710.8 ave       10865 max       10590 min
Histogram: 4 5 4 3 2 3 5 2 2 2
Neighs:         512796 ave      569864 max      476485 min
Histogram: 4 7 4 3 3 2 4 1 2 2

Total # of neighbors = 16409467
Ave neighs/atom = 546.61782
Ave special neighs/atom = 10.787475
Neighbor list builds = 390
Dangerous builds = 0
unfix md2

# STEP 2 - MD for thermal conductivity
# 2a - impose nve
fix md3 all nve

# 2b - impose heat flux
fix hot all ehex 1 ${heat_flux} region hot
fix hot all ehex 1 0.02 region hot
fix cold all ehex 1 ${heat_flux_neg} region cold
fix cold all ehex 1 -0.02 region cold

# 2c - calculate thermal profile
compute ke all ke/atom
variable temp atom c_ke/(1.5*0.001987204)

compute layers all chunk/atom bin/1d x lower 0.05 units reduced
fix bins all ave/chunk ${nEvery} ${nRepeat} ${tLog} layers v_temp file Tprofile_x_ehex.dat
fix bins all ave/chunk 10 ${nRepeat} ${tLog} layers v_temp file Tprofile_x_ehex.dat
fix bins all ave/chunk 10 100 ${tLog} layers v_temp file Tprofile_x_ehex.dat
fix bins all ave/chunk 10 100 1000 layers v_temp file Tprofile_x_ehex.dat

variable tdiff equal c_Thot-c_Tcold
fix ave all ave/time ${nEvery} ${nRepeat} ${tLog} v_tdiff ave running start ${diffT_delay}
fix ave all ave/time 10 ${nRepeat} ${tLog} v_tdiff ave running start ${diffT_delay}
fix ave all ave/time 10 100 ${tLog} v_tdiff ave running start ${diffT_delay}
fix ave all ave/time 10 100 1000 v_tdiff ave running start ${diffT_delay}
fix ave all ave/time 10 100 1000 v_tdiff ave running start 20000

# pre define kappa
variable kappa_inst equal 0
variable kappa equal 0

# 2d - thermo out
# dump dump_tc all custom 1000 dump.tc_x_ehex.lammpstrj id type mol x y z ix iy iz vx vy vz
thermo_style custom step time v_kappa v_kappa_inst c_Thot c_Tcold v_tdiff f_ave temp press enthalpy etotal ke pe
WARNING: New thermo_style command, previous thermo_modify settings will be lost (src/output.cpp:904)
thermo_modify colname v_kappa kappa colname v_kappa_inst kappa_inst colname c_Thot Temp_hot colname c_Tcold Temp_cold colname v_tdiff dTemp_step colname f_ave dTemp
thermo_modify flush yes
thermo ${tLog}
thermo 1000

# 2e - prerun
run ${tPrerun}
run 10000
PPPM initialization ...
  using 12-bit tables for long-range coulomb (src/kspace.cpp:342)
  G vector (1/distance) = 0.25787445
  grid = 54 60 45
  stencil order = 5
  estimated absolute RMS force accuracy = 0.00038404524
  estimated relative force accuracy = 1.1565408e-06
  using double precision FFTW3
  3d grid and FFT values/proc = 12760 6480
Generated 21 of 21 mixed pair_coeff terms from arithmetic mixing rule
Per MPI rank memory allocation (min/avg/max) = 21.34 | 21.59 | 21.72 Mbytes
   Step          Time          kappa        kappa_inst      Temp_hot      Temp_cold      dTemp_step       dTemp           Temp          Press         Enthalpy        TotEng         KinEng         PotEng    
     10000   10000          0              0              292.83825      297.96771     -5.1294583      0              299.2864      -387.29479      127875.8       129658.25      26780.428      102877.82    
     11000   11000          0              0              299.95766      296.73065      3.2270092      0              299.26287     -62.409622      129366.15      129653.38      26778.322      102875.05    
     12000   12000          0              0              300.28386      290.84212      9.4417449      0              299.17621      329.49873      131171.86      129655.41      26770.567      102884.84    
     13000   13000          0              0              303.67599      291.83491      11.841076      0              299.85546      585.45873      132341.71      129647.25      26831.348      102815.91    
     14000   14000          0              0              299.04497      295.15979      3.8851784      0              298.46534      701.25085      132878.95      129651.58      26706.958      102944.62    
     15000   15000          0              0              302.3616       295.76717      6.5944323      0              299.28719      38.806598      129832.14      129653.54      26780.498      102873.04    
     16000   16000          0              0              299.06721      288.27678      10.790436      0              300.04135      633.42502      132568.47      129653.26      26847.981      102805.28    
     17000   17000          0              0              299.74978      292.19874      7.5510448      0              298.89206      386.21243      131434.97      129657.5       26745.142      102912.36    
     18000   18000          0              0              313.58205      291.31175      22.2703        0              297.90084     -112.19272      129138.89      129655.23      26656.446      102998.79    
     19000   19000          0              0              295.83554      288.35641      7.479131       0              298.95103     -262.19244      128451.72      129658.41      26750.418      102907.99    
     20000   20000          0              0              296.2677       287.92279      8.3449031      18.544021      297.64014     -326.48375      128157.11      129659.69      26633.118      103026.57    
Loop time of 142.53 on 32 procs for 10000 steps with 30020 atoms

Performance: 6.062 ns/day, 3.959 hours/ns, 70.161 timesteps/s, 2.106 Matom-step/s
99.5% CPU use with 32 MPI tasks x 1 OpenMP threads

MPI task timing breakdown:
Section |  min time  |  avg time  |  max time  |%varavg| %total
---------------------------------------------------------------
Pair    | 64.104     | 70.743     | 77.67      |  44.0 | 49.63
Bond    | 1.4791     | 1.6842     | 1.8078     |   5.9 |  1.18
Kspace  | 49.257     | 55.821     | 62.253     |  50.0 | 39.16
Neigh   | 4.9618     | 5.0914     | 5.229      |   3.8 |  3.57
Comm    | 6.6992     | 7.8531     | 9.0455     |  21.3 |  5.51
Output  | 0.0021899  | 0.0023083  | 0.0027638  |   0.2 |  0.00
Modify  | 0.86457    | 1.0748     | 1.3126     |  10.6 |  0.75
Other   |            | 0.2612     |            |       |  0.18

Nlocal:        938.125 ave         983 max         870 min
Histogram: 1 1 2 3 5 4 6 2 1 7
Nghost:        10694.8 ave       10904 max       10514 min
Histogram: 2 5 3 4 3 5 6 1 1 2
Neighs:         512855 ave      562526 max      469498 min
Histogram: 4 6 3 1 1 4 5 3 3 2

Total # of neighbors = 16411362
Ave neighs/atom = 546.68095
Ave special neighs/atom = 10.787475
Neighbor list builds = 393
Dangerous builds = 0

# 2f - calc kappa
variable kappa_inst equal (${heat_flux}/(ly*lz)/2.0)*(lx/2.0)/v_tdiff*69478.5785
variable kappa_inst equal (0.02/(ly*lz)/2.0)*(lx/2.0)/v_tdiff*69478.5785
variable kappa equal (${heat_flux}/(ly*lz)/2.0)*(lx/2.0)/f_ave*69478.5785
variable kappa equal (0.02/(ly*lz)/2.0)*(lx/2.0)/f_ave*69478.5785

# 2g - md run for kappa calculation
# optional traj dump
if "${boolDump} == 1" then     "dump tc_dump all atom ${tDump} dump.tc_x.lammpstrj"
run ${tTCrun}
run 1500000
PPPM initialization ...
  using 12-bit tables for long-range coulomb (src/kspace.cpp:342)
  G vector (1/distance) = 0.25787445
  grid = 54 60 45
  stencil order = 5
  estimated absolute RMS force accuracy = 0.00038404524
  estimated relative force accuracy = 1.1565408e-06
  using double precision FFTW3
  3d grid and FFT values/proc = 12760 6480
Generated 21 of 21 mixed pair_coeff terms from arithmetic mixing rule
Per MPI rank memory allocation (min/avg/max) = 21.75 | 21.85 | 21.97 Mbytes
   Step          Time          kappa        kappa_inst      Temp_hot      Temp_cold      dTemp_step       dTemp           Temp          Press         Enthalpy        TotEng         KinEng         PotEng    
     20000   20000          0.30207358     0.63072945     296.80403      287.92279      8.8812388      18.544021      297.64014     -326.48372      128157.11      129659.69      26633.118      103026.57    
     21000   21000          0.2972209      0.51055946     314.59736      303.62575      10.971609      18.846787      298.97243      575.16108      132299.9       129652.84      26752.333      102900.5     
     22000   22000          0.31377627     0.59547675     311.4152       302.00818      9.4070152      17.852398      298.34495      156.20565      130377.68      129658.78      26696.186      102962.59    
     23000   23000          0.32449927     2.1122481      295.66565      293.01366      2.6519891      17.26247       299.60887      379.13034      131395.61      129650.74      26809.283      102841.46    
     24000   24000          0.3301964      0.31787711     310.30053      292.67844      17.622089      16.964627      298.63263     -570.93109      127028.93      129656.52      26721.927      102934.6     
     25000   25000          0.32230466     0.34418821     312.15393      295.87894      16.274987      17.380012      298.16918      788.51759      133287.51      129658.51      26680.458      102978.05    
     26000   26000          0.31277901     0.38272567     308.05423      293.418        14.636224      17.909318      299.66584     -97.887307      129195.89      129646.4       26814.38       102832.02    
     27000   27000          0.31769234     0.33413426     307.30764      290.54294      16.764695      17.632338      299.40515      445.83904      131709.63      129657.75      26791.054      102866.69    
     28000   28000          0.31836835     0.46215783     301.68869      289.56803      12.120662      17.594898      297.41499     -22.6641        129559.04      129663.34      26612.972      103050.37    
     29000   29000          0.31823059     0.30637455     308.38684      290.10315      18.283695      17.602515      298.77167      215.61187      130648.48      129656.17      26734.369      102921.8     
     30000   30000          0.31478413     0.24311271     310.5488       287.50739      23.041407      17.795239      299.2525       421.57552      131594.08      129653.86      26777.394      102876.47    
     31000   31000          0.307688       0.27844116     309.47778      289.35986      20.117926      18.205646      299.18966     -32.58042       129505.91      129655.86      26771.771      102884.09    
     32000   32000          0.30350372     0.41245705     308.54168      294.96049      13.581193      18.45664       299.38661      482.14655      131870.8       129651.81      26789.395      102862.42    
     33000   33000          0.29794761     0.35093225     313.37276      297.41053      15.962223      18.800818      299.43332     -266.58949      128431.34      129658.26      26793.574      102864.69    
     34000   34000          0.29397749     0.17394992     314.45579      282.25308      32.20271       19.05472       296.52661     -135.92482      129035.29      129660.85      26533.479      103127.38    
     35000   35000          0.28523281     0.25904708     308.13117      286.50708      21.624096      19.6389        298.05044      132.01807      130262.81      129655.23      26669.832      102985.39    
     36000   36000          0.28001842     0.18933754     315.55405      285.96848      29.585568      20.004608      298.75689     -524.15468      127242.85      129655.17      26733.046      102922.12    
     37000   37000          0.27880802     0.59501452     306.29513      296.88081      9.4143228      20.091455      297.90496     -172.64547      128863.46      129658.03      26656.815      103001.21    
     38000   38000          0.27803619     0.18637596     312.53763      282.48193      30.055694      20.147229      298.24344     -55.008914      129397.1       129650.27      26687.102      102963.16    
     39000   39000          0.27535273     0.2648466      314.90427      293.7537       21.150579      20.343574      300.2535       283.4783       130955.02      129650.36      26866.965      102783.4     
     40000   40000          0.27322183     0.20328226     314.54121      286.98515      27.556063      20.502238      298.15962      284.31682      130958.48      129649.97      26679.602      102970.36    
     41000   41000          0.2735819      0.1626684      321.41478      286.97872      34.436061      20.475254      297.37045      85.962804      130057.96      129662.33      26608.987      103053.35    
     42000   42000          0.27193302     0.19820282     308.13293      279.87068      28.262256      20.599406      299.19461     -351.17081      128042.31      129658.51      26772.214      102886.29    
     43000   43000          0.2677547      0.27405897     316.42159      295.98198      20.439611      20.920861      298.71946      210.33396      130620.36      129652.34      26729.697      102922.64    
     44000   44000          0.26538176     0.18927082     319.14042      289.54442      29.595998      21.107927      299.69406     -332.58676      128123.24      129653.91      26816.905      102837       
     45000   45000          0.26259358     0.28496479     307.89873      288.24136      19.657372      21.332048      298.64325      34.675081      129809.28      129649.69      26722.878      102926.82    
     46000   46000          0.2603616      0.32650014     307.12834      289.97166      17.156681      21.514919      300.22705      311.30783      131085.62      129652.89      26864.598      102788.29    
     47000   47000          0.25779426     0.17642525     319.27916      287.52827      31.750891      21.729183      297.92267     -17.629803      129580.17      129661.31      26658.4        103002.91    
     48000   48000          0.25462831     0.24072523     317.27803      294.0081       23.269928      21.999356      300.89885      272.27116      130902.4       129649.33      26924.711      102724.62    
     49000   49000          0.25139142     0.14491181     316.74652      278.09088      38.65564       22.282617      301.47405     -106.87381      129156.63      129648.5       26976.181      102672.32    
     50000   50000          0.24878244     0.1729333      319.60788      287.21586      32.39202       22.516295      297.60577     -734.29565      126274.92      129654.37      26630.043      103024.33    
     51000   51000          0.2458637      0.32255202     304.91598      287.5493       17.366683      22.783594      299.25636      479.30046      131856.22      129650.33      26777.739      102872.59    
     52000   52000          0.24401348     0.16970314     317.4742       284.46563      33.008575      22.95635       299.01352     -149.44007      128968.44      129656.21      26756.01       102900.2     
     53000   53000          0.24077639     0.23382034     310.81542      286.85831      23.957106      23.264984      299.21417      583.5209       132333.65      129648.1       26773.964      102874.14    
     54000   54000          0.23928322     0.19307073     319.9973       290.98379      29.013507      23.410162      298.30021     -258.76944      128466.13      129657.07      26692.183      102964.88    
     55000   55000          0.23874219     0.19969126     321.90571      293.85411      28.051597      23.463213      299.14638      646.07977      132631.59      129658.14      26767.898      102890.24    
     56000   56000          0.23732523     0.20292199     307.38369      279.7787       27.604987      23.603301      298.68479      434.44234      131652.69      129653.26      26726.594      102926.66    
     57000   57000          0.23683872     0.1879678      314.97717      285.17601      29.801162      23.651787      299.07602     -147.07557      128976.38      129653.27      26761.602      102891.67    
     58000   58000          0.23614377     0.24685844     309.33777      286.64599      22.691786      23.721391      299.56335      28.115174      129784.96      129655.56      26805.209      102850.36    
     59000   59000          0.23499996     0.14813973     312.83487      275.02152      37.813347      23.836851      299.39677     -245.09996      128527.31      129655.34      26790.304      102865.03    
     60000   60000          0.23360275     0.2289843      306.63617      282.1731       24.463069      23.979422      298.13438      264.38841      130872.98      129656.18      26677.344      102978.84    
     61000   61000          0.23232414     0.21863372     308.49991      282.87871      25.621202      24.111394      300.10764      198.63968      130570.7       129656.5       26853.913      102802.59    
     62000   62000          0.23125298     0.17077884     312.47501      279.67435      32.80066       24.223078      298.2679       186.0886       130509.96      129653.53      26689.291      102964.23    
     63000   63000          0.23032938     0.15955167     307.62882      272.52007      35.108744      24.32021       298.53056      183.18898      130496.55      129653.46      26712.794      102940.67    
     64000   64000          0.22944315     0.21120278     306.63723      280.11458      26.522656      24.414148      297.13276     -667.3565       126581.83      129653.21      26587.717      103065.49    
     65000   65000          0.22885901     0.17741395     317.78902      286.21507      31.573948      24.476462      298.8981      -337.57658      128103.43      129657.06      26745.682      102911.37    
     66000   66000          0.22890654     0.14382377     318.064        279.11592      38.948074      24.47138       299.12758     -325.48397      128154.88      129652.86      26766.216      102886.64    
     67000   67000          0.22885441     0.25158713     311.78597      289.52069      22.265283      24.476954      297.41986     -293.13298      128305.76      129654.85      26613.407      103041.44    
     68000   68000          0.22847646     0.26733569     311.38647      290.43281      20.953651      24.517444      299.82121      476.56519      131846.01      129652.71      26828.283      102824.42    
     69000   69000          0.22808854     0.25696711     316.07085      294.27173      21.799128      24.559142      298.86243      299.8828       131036.89      129656.74      26742.49       102914.25    
     70000   70000          0.2278574      0.27129728     317.27973      296.63205      20.647677      24.584055      300.00878     -302.4364       128261.45      129653.35      26845.067      102808.28    
     71000   71000          0.22706496     0.39781708     307.51065      293.42966      14.080991      24.669851      298.09691     -735.04877      126277.27      129660.19      26673.991      102986.2     
     72000   72000          0.22585275     0.18017568     319.98258      288.8926       31.089983      24.802261      299.00574     -546.92314      127134.1       129651.21      26755.314      102895.89    
     73000   73000          0.22523485     0.26817035     309.17987      288.29144      20.888435      24.870302      298.20428     -277.78081      128379.76      129658.2       26683.598      102974.6     
     74000   74000          0.22394211     0.20211836     314.9844       287.26966      27.714745      25.01387       297.6016       547.28952      132174.1       129655.31      26629.67       103025.64    
     75000   75000          0.22221812     0.1972401      316.54431      288.1441       28.400203      25.20793       299.25781      371.51362      131361.75      129651.93      26777.869      102874.06    
     76000   76000          0.22028627     0.14146626     320.50163      280.90449      39.597137      25.428996      299.0049       413.06493      131557.3       129656.25      26755.239      102901.01    
     77000   77000          0.21772097     0.1083863      331.18851      279.50616      51.68235       25.728614      299.02474      262.3796       130860.9       129653.35      26757.014      102896.34    
     78000   78000          0.21599405     0.15156072     311.96936      275.00953      36.959831      25.93432       297.37895     -302.22385      128265.94      129656.87      26609.747      103047.12    
     79000   79000          0.21385516     0.15466879     322.33708      286.11996      36.217124      26.193704      300.4941      -155.10806      128933.99      129647.84      26888.494      102759.35    
     80000   80000          0.21169555     0.11473562     329.76142      280.9391       48.822319      26.460919      300.18542     -371.86074      127942.47      129653.89      26860.872      102793.02    
     81000   81000          0.20991726     0.15012898     322.17232      284.86002      37.312308      26.685079      301.84943     -213.21119      128665.55      129646.81      27009.769      102637.04    
     82000   82000          0.20846933     0.17695782     313.71895      282.06361      31.655333      26.870422      298.64022     -224.72076      128619.29      129653.52      26722.607      102930.92    
     83000   83000          0.20743221     0.15092039     316.09784      278.98119      37.116646      27.004768      298.41052      10.577923      129705.21      129656.53      26702.053      102954.47    
     84000   84000          0.20665407     0.14579857     311.79553      273.37499      38.420534      27.106453      298.08244      338.49593      131211.49      129653.62      26672.696      102980.93    
     85000   85000          0.20611333     0.1499731      321.92054      284.56945      37.351091      27.177567      297.52302     -586.29299      126962.29      129660.59      26622.639      103037.95    
     86000   86000          0.20620566     0.15898729     319.24383      284.01046      35.233375      27.165398      296.89757     -340.87654      128090.76      129659.58      26566.672      103092.91    
     87000   87000          0.20592016     0.13852334     315.96882      275.53044      40.438376      27.203061      299.12713      521.58135      132056.17      129655.69      26766.176      102889.52    
     88000   88000          0.2057115      0.17387971     319.54939      287.33368      32.215713      27.230654      299.10854      120.0973       130213.84      129661.11      26764.513      102896.6     
     89000   89000          0.20558923     0.16821621     316.70898      283.40863      33.300351      27.246849      299.15645      555.5035       132211.58      129654.98      26768.8        102886.18    
     90000   90000          0.2048916      0.15962354     326.84599      291.75305      35.092938      27.339622      299.18991     -201.95342      128722.2       129651.65      26771.793      102879.86    
     91000   91000          0.20430821     0.27860099     306.88434      286.77795      20.106385      27.417688      298.7901       272.35283      130916.03      129662.58      26736.018      102926.57    
     92000   92000          0.20372239     0.20431119     321.82713      294.40984      27.417289      27.496531      299.04749      436.14462      131662.92      129655.65      26759.05       102896.6     
     93000   93000          0.20309051     0.18348682     315.99487      285.46592      30.528944      27.58208       298.17433      299.07197      131033.76      129657.34      26680.918      102976.43    
     94000   94000          0.20261512     0.20642187     312.00713      284.87018      27.136945      27.646795      300.07307     -46.877847      129440.56      129656.31      26850.82       102805.49    
     95000   95000          0.2022636      0.4135586      302.57174      289.02672      13.545018      27.694843      300.59461      469.03414      131813.97      129655.33      26897.488      102757.85    
     96000   96000          0.20217075     0.19827812     304.45768      276.20616      28.251522      27.707563      297.41872      211.49778      130634.9       129661.52      26613.306      103048.22    
     97000   97000          0.20181513     0.24026672     306.0619       282.74756      23.314335      27.756387      299.4749       271.10563      130902.26      129654.54      26797.294      102857.25    
     98000   98000          0.20149773     0.1433061      317.97208      278.88332      39.088768      27.800109      299.26272      342.85551      131231.93      129654         26778.309      102875.69    
     99000   99000          0.20117172     0.3520119      304.0024       288.08914      15.913265      27.84516       298.92507     -227.66704      128609.21      129657         26748.095      102908.91    
    100000   100000         0.20084261     0.11655452     319.05223      270.99181      48.060417      27.890789      300.03244      476.46752      131847.23      129654.38      26847.184      102807.2     
    101000   101000         0.19986922     0.12178283     317.62671      271.62959      45.997115      28.026621      298.47441     -329.29902      128143.25      129658.78      26707.77       102951.01    
    102000   102000         0.19940994     0.18469377     309.52332      279.19388      30.329441      28.091171      300.62949     -326.74351      128146.15      129649.92      26900.609      102749.31    
    103000   103000         0.19922046     0.17123957     314.3579       281.64549      32.712408      28.117889      297.53772      309.14879      131078.96      129656.16      26623.954      103032.21    
    104000   104000         0.19905129     0.13133529     317.49319      274.8416       42.65159       28.141786      298.18245      445.32606      131711.8       129662.28      26681.645      102980.63    
    105000   105000         0.19826685     0.14707401     321.80273      283.71539      38.087346      28.253128      297.68942      297.43415      131027.13      129658.24      26637.528      103020.72    
    106000   106000         0.19797543     0.1627075      316.20675      281.77897      34.427786      28.294718      299.17054     -57.414529      129392.11      129656.35      26770.06       102886.29    
    107000   107000         0.19783665     0.17813925     314.46347      283.01807      31.445393      28.314565      298.76319     -210.54217      128689.37      129658.35      26733.61       102924.74    
    108000   108000         0.19744083     0.15076469     319.15736      282.00238      37.154979      28.37133       298.51135      365.21737      131334.17      129653.33      26711.075      102942.25    
    109000   109000         0.1969494      0.13529617     315.36502      273.96208      41.402937      28.442122      297.67276      235.25383      130741.07      129658.36      26636.037      103022.32    
    110000   110000         0.19639259     0.13992113     323.80104      283.76663      40.034402      28.522761      299.3323      -506.30334      127321.8       129651.96      26784.535      102867.42    
    111000   111000         0.19621721     0.28457888     308.09922      288.41519      19.684029      28.548254      299.54637     -153.46879      128946.92      129653.23      26803.69       102849.54    
    112000   112000         0.19585852     0.11767374     329.4984       281.8951       47.603303      28.600537      300.80184     -474.65165      127464.83      129649.32      26916.031      102733.29    
    113000   113000         0.1958504      0.15235902     317.57036      280.80419      36.766178      28.601723      298.71601     -573.68209      127013.58      129653.84      26729.389      102924.45    
    114000   114000         0.19572062     0.22372693     309.46655      284.42862      25.037928      28.620689      299.43639     -73.974223      129315.91      129656.36      26793.848      102862.52    
    115000   115000         0.19549164     0.25065343     302.84272      280.4945       22.348223      28.654212      298.2451      -304.42192      128257.33      129658.37      26687.251      102971.12    
    116000   116000         0.19544602     0.15528894     321.3329       285.26041      36.07249       28.6609        298.23413     -79.871243      129289.95      129657.54      26686.269      102971.27    
    117000   117000         0.19529698     0.19883156     303.46857      275.29569      28.172886      28.682773      298.10258     -668.39517      126576.5       129652.66      26674.498      102978.16    
    118000   118000         0.19521613     0.12598608     320.44766      275.98513      44.462522      28.694651      298.91916     -72.510271      129323.14      129656.86      26747.567      102909.29    
    119000   119000         0.19529341     0.20701281     318.25127      291.1918       27.059479      28.683297      297.89375     -672.44082      126559.44      129654.22      26655.812      102998.41    
    120000   120000         0.19483739     0.28907778     304.42855      285.05086      19.377687      28.75043       297.79017     -378.39186      127914.28      129655.76      26646.543      103009.22    
    121000   121000         0.19439317     0.16906034     319.23894      286.10486      33.13408       28.81613       299.43128      812.84074      133394.16      129653.22      26793.391      102859.83    
    122000   122000         0.19395527     0.15810537     312.53823      277.10833      35.429908      28.88119       298.21395      378.8918       131404.29      129660.51      26684.464      102976.05    
    123000   123000         0.19357939     0.24870989     305.1754       282.65254      22.522863      28.937268      298.72121      1387.9121      136038.73      129651.13      26729.854      102921.28    
    124000   124000         0.1933326      0.12581653     325.4324       280.90996      44.52244       28.974208      300.38772      81.379331      130026.61      129652.08      26878.975      102773.1     
    125000   125000         0.19306254     0.2154379      308.85734      282.85607      26.00127       29.014736      298.04681     -714.32299      126370.96      129658.49      26669.507      102988.99    
    126000   126000         0.19271367     0.20416667     313.46395      286.02726      27.436696      29.067262      298.35873     -275.21606      128390.14      129656.77      26697.419      102959.35    
    127000   127000         0.1926358      0.17894299     313.85527      282.55112      31.304154      29.079012      300.62048     -314.93501      128204.3       129653.73      26899.802      102753.93    
    128000   128000         0.19237184     0.13918812     323.27503      283.02979      40.245237      29.118913      297.67591      43.361924      129857.25      129657.69      26636.319      103021.37    
    129000   129000         0.19225426     0.1288519      320.08597      276.61235      43.473622      29.136721      298.98096      557.53834      132221.41      129655.45      26753.096      102902.35    
    130000   130000         0.19208908     0.20473015     309.29294      281.93176      27.361182      29.161777      298.90413     -48.968092      129430.78      129656.14      26746.221      102909.92    
    131000   131000         0.19210701     0.15822336     312.74873      277.34524      35.403488      29.159055      298.55085     -165.0582       128895.71      129655.36      26714.61       102940.75    
    132000   132000         0.19186465     0.25268168     306.92855      284.75972      22.168837      29.195888      297.76797     -0.029196156    129663.05      129663.19      26644.557      103018.63    
    133000   133000         0.19169656     0.20280019     307.9702       280.34863      27.621565      29.221488      299.14961      189.79646      130531.05      129657.55      26768.187      102889.36    
    134000   134000         0.1917439      0.13653992     315.07282      274.04702      41.025794      29.214274      298.22399      133.54666      130275.95      129661.32      26685.362      102975.96    
    135000   135000         0.19190335     0.2024846      316.36876      288.70414      27.664617      29.19          299.17424     -8.5207869      129609.07      129648.29      26770.391      102877.89    
    136000   136000         0.19221278     0.36049526     306.52616      290.98737      15.538786      29.14301       298.78321     -0.53141104     129656.71      129659.16      26735.401      102923.76    
    137000   137000         0.19236032     0.30451641     312.92939      294.53413      18.395261      29.120656      299.05197     -233.66278      128573.77      129649.16      26759.451      102889.71    
    138000   138000         0.19237249     0.19324832     313.30726      284.32042      28.986843      29.118814      299.58398      165.49038      130414.99      129653.35      26807.055      102846.3     
    139000   139000         0.19243603     0.15505681     315.50399      279.37749      36.126494      29.1092        298.40633      473.16559      131831.99      129654.34      26701.678      102952.66    
    140000   140000         0.1925604      0.3654416      305.00199      289.67352      15.328465      29.090398      298.55179     -137.4735       129020.49      129653.19      26714.694      102938.49    
    141000   141000         0.19291756     0.20018136     304.73198      276.74906      27.982919      29.036542      298.86675      238.0145       130754.58      129659.16      26742.877      102916.29    
    142000   142000         0.19350028     0.17119471     315.86916      283.14818      32.72098       28.9491        297.69218      90.53541       130075.87      129659.19      26637.776      103021.42    
    143000   143000         0.19347262     0.13328698     323.48122      281.45417      42.027052      28.953237      298.88202     -343.10621      128078.01      129657.09      26744.243      102912.84    
    144000   144000         0.19342048     0.14595075     318.96397      280.5835       38.380472      28.961043      298.36666     -224.03124      128627.74      129658.8       26698.128      102960.68    
    145000   145000         0.19341589     0.11131836     330.51627      280.1952       50.321069      28.961731      299.92316      0.82683501     129659.71      129655.9       26837.406      102818.5     
    146000   146000         0.19339976     0.23165878     312.19699      288.01635      24.180646      28.964146      300.31455     -311.93402      128221.29      129656.91      26872.427      102784.48    
    147000   147000         0.19352813     0.16918882     308.85109      275.74217      33.108919      28.944933      297.87314      196.05287      130563.2       129660.91      26653.967      103006.94    
    148000   148000         0.19368749     0.24724693     305.16263      282.50649      22.656131      28.921119      297.1799      -583.1762       126975.96      129659.92      26591.936      103067.98    
    149000   149000         0.19380084     0.15158095     322.91468      285.95978      36.9549        28.904202      300.61868      190.49969      130527.46      129650.72      26899.641      102751.08    
    150000   150000         0.19334433     0.17186853     317.13769      284.54499      32.592696      28.972449      297.19254     -245.44123      128527.46      129657.06      26593.067      103063.99    
    151000   151000         0.19341188     0.23782118     306.57984      283.02576      23.554078      28.96233       299.15185     -350.0386       128044.53      129655.52      26768.388      102887.13    
    152000   152000         0.19358207     0.2910516      301.26008      282.0138       19.246274      28.936869      298.5134       52.940553      129900.61      129656.96      26711.258      102945.7     
    153000   153000         0.19381377     0.27054945     304.02671      283.32196      20.70475       28.902274      297.35483     -372.67009      127946.74      129661.88      26607.588      103054.29    
    154000   154000         0.19376117     0.13463727     321.39686      279.7913       41.605559      28.91012       298.81649      50.050858      129888.31      129657.96      26738.38       102919.58    
    155000   155000         0.19360255     0.14957709     319.4553       282.00532      37.449977      28.933808      298.98226      59.020076      129926.41      129654.78      26753.213      102901.57    
    156000   156000         0.19375913     0.21387393     315.81433      289.62293      26.191406      28.910424      299.74454      452.47273      131734.23      129651.82      26821.423      102830.39    
    157000   157000         0.19379082     0.19495893     322.06307      293.33057      28.732507      28.905697      298.3264       590.53914      132374.92      129657.08      26694.526      102962.55    
    158000   158000         0.19398332     0.22117566     315.18341      289.85667      25.326742      28.877013      296.97425     -581.52958      126983.72      129660.1       26573.534      103086.56    
    159000   159000         0.19402381     0.19780396     310.33862      282.01937      28.319245      28.870986      298.01493     -246.36212      128522.99      129656.83      26666.656      102990.17    
    160000   160000         0.19389881     0.1636371      316.87886      282.64666      34.232206      28.889599      299.04913      72.899149      129987.73      129652.22      26759.197      102893.03    
    161000   161000         0.19399912     0.18729271     311.16963      281.26105      29.908579      28.874661      297.90296     -974.67394      125170.89      129656.63      26656.636      103000       
    162000   162000         0.19361798     0.20149918     318.26936      290.46945      27.799908      28.931501      297.05895      99.2359        130113.45      129656.74      26581.114      103075.62    
    163000   163000         0.1935472      0.16109908     317.57089      282.79937      34.771513      28.942081      297.29517     -53.085499      129410         129654.32      26602.251      103052.07    
    164000   164000         0.19355511     0.25794484     314.37218      292.65568      21.716499      28.940899      300.4765       39.141676      129831.23      129651.09      26886.919      102764.17    
    165000   165000         0.19344657     0.25510982     307.74585      285.78801      21.957833      28.957136      297.41227      316.41284      131117.72      129661.49      26612.728      103048.76    
    166000   166000         0.19321705     0.15279047     323.40639      286.74403      36.662358      28.991535      299.23098      346.57528      131254.32      129659.28      26775.469      102883.81    
    167000   167000         0.19309307     0.15719238     317.86475      282.22906      35.63569       29.010149      299.17026      211.68412      130626.52      129652.29      26770.035      102882.25    
    168000   168000         0.19305047     0.19690374     315.19299      286.74427      28.448717      29.016551      299.17027     -183.61353      128811.04      129656.09      26770.036      102886.05    
    169000   169000         0.19278713     0.14507797     312.48422      273.87285      38.611367      29.056186      297.85419     -393.39014      127844.04      129654.54      26652.272      103002.27    
    170000   170000         0.19247548     0.16537495     312.24825      278.37577      33.872475      29.103234      299.32436      279.63532      130938.94      129651.97      26783.824      102868.15    
    171000   171000         0.19236026     0.15052159     325.92419      288.7092       37.214987      29.120666      299.75002      13.90746       129717.97      129653.96      26821.913      102832.05    
    172000   172000         0.1921683      0.15161747     316.24547      279.29948      36.945998      29.149755      296.53822      181.28861      130499.37      129665.02      26534.518      103130.5     
    173000   173000         0.19182315     0.13257619     318.40458      276.15221      42.252373      29.202205      299.6551      -204.32822      128712.1       129652.48      26813.419      102839.06    
    174000   174000         0.19127442     0.13251209     324.27551      282.00269      42.272814      29.28598       299.61129      57.902803      129919.67      129653.18      26809.499      102843.69    
    175000   175000         0.19102254     0.19831361     308.08791      279.84144      28.246467      29.324596      299.10458      67.295409      129962.5       129652.79      26764.158      102888.63    
    176000   176000         0.19086665     0.26802064     303.61451      282.7144       20.900102      29.348547      297.98874      141.68048      130313.38      129661.32      26664.311      102997.01    
    177000   177000         0.19080816     0.25645361     312.69335      290.85057      21.842776      29.357543      299.11977      149.73338      130340.22      129651.11      26765.517      102885.59    
    178000   178000         0.19068489     0.20155944     311.94164      284.15004      27.791597      29.376522      299.49604      125.48172      130233.45      129655.94      26799.186      102856.76    
    179000   179000         0.19062387     0.15718789     313.52304      277.88633      35.636708      29.385925      297.7183      -435.39376      127657.03      129660.85      26640.113      103020.73    
    180000   180000         0.19073939     0.22404038     311.73658      286.73368      25.002898      29.368127      298.73862     -213.96505      128671.96      129656.69      26731.412      102925.28    
    181000   181000         0.19079119     0.18756365     318.07049      288.20511      29.865375      29.360155      300.1116       891.68391      133766.9       129663.1       26854.267      102808.84    
    182000   182000         0.19078336     0.14443042     320.81685      282.03237      38.78448       29.36136       299.87458      117.27917      130196.06      129656.31      26833.058      102823.25    
    183000   183000         0.19058849     0.13128892     318.30718      275.64053      42.666653      29.391381      299.51957      490.10055      131913.61      129658.02      26801.291      102856.73    
    184000   184000         0.19021639     0.19031041     309.95883      280.5245       29.434326      29.448875      299.75826     -151.7864       128956.94      129655.5       26822.65       102832.85    
    185000   185000         0.18990972     0.14843358     321.90258      284.16409      37.738487      29.49643       299.55032      384.62801      131420.13      129649.95      26804.044      102845.91    
    186000   186000         0.18972085     0.15596648     315.98352      280.06774      35.915785      29.525794      299.85592      71.033926      129984.17      129657.25      26831.388      102825.87    
    187000   187000         0.18939941     0.18754182     310.07674      280.20789      29.868851      29.575905      297.89384     -218.36785      128653.88      129658.87      26655.82       103003.05    
    188000   188000         0.18935912     0.11386111     332.28352      283.08623      49.197296      29.582197      298.90836      345.57963      131247.52      129657.06      26746.6        102910.46    
    189000   189000         0.18920044     0.13271814     327.85443      285.64725      42.207184      29.607008      299.47227      684.43442      132806.96      129656.99      26797.059      102859.93    
    190000   190000         0.18892567     0.22273079     322.29925      297.14935      25.149908      29.650068      299.65145     -306.36465      128242.3       129652.28      26813.092      102839.19    
    191000   191000         0.18857798     0.12289151     328.05634      282.4742       45.582146      29.704734      299.07606     -193.45446      128763.22      129653.55      26761.606      102891.95    
    192000   192000         0.18836616     0.21837352     303.39532      277.74359      25.651731      29.738137      296.74734      126.13209      130245.33      129664.83      26553.23       103111.6     
    193000   193000         0.18810715     0.12117316     319.28021      273.05167      46.228543      29.779085      298.92822     -699.2435       126432.77      129650.9       26748.378      102902.52    
    194000   194000         0.18782803     0.16698343     311.14758      277.60139      33.546195      29.823338      298.2673       351.90323      131277.95      129658.38      26689.237      102969.14    
    195000   195000         0.18771376     0.25309557     312.84578      290.7132       22.132583      29.841492      298.26298      133.97674      130274.73      129658.13      26688.851      102969.28    
    196000   196000         0.18768219     0.17030691     317.95833      285.06678      32.891553      29.846512      299.16711     -469.13025      127497.09      129656.17      26769.753      102886.42    
    197000   197000         0.18764228     0.19810471     318.93772      290.66147      28.276252      29.852861      299.47462      178.92642      130477.41      129653.93      26797.269      102856.67    
    198000   198000         0.18748403     0.21928315     312.89548      287.35016      25.545323      29.878058      297.59001      604.69592      132444.12      129661.13      26628.633      103032.49    
    199000   199000         0.1871785      0.15584222     313.85697      277.91254      35.944424      29.926828      299.40273     -144.20338      128995.99      129659.66      26790.837      102868.82    
    200000   200000         0.18695947     0.15054233     312.30165      275.09179      37.209858      29.961888      298.36983      766.61227      133186.34      129658.15      26698.412      102959.74    
    201000   201000         0.18685238     0.14096928     319.07414      279.3374       39.736735      29.97906       301.06373     -56.407634      129392.73      129652.33      26939.465      102712.87    
    202000   202000         0.18668905     0.17663891     313.93673      282.22424      31.712484      30.005288      299.92858     -610.11378      126845.4       129653.33      26837.89       102815.44    
    203000   203000         0.18648201     0.10576089     327.6096       274.64428      52.965317      30.038601      299.19716      957.75273      134062.54      129654.67      26772.443      102882.23    
    204000   204000         0.18645761     0.13210435     321.56262      279.15933      42.40329       30.042533      298.61769      208.46991      130611.61      129652.17      26720.591      102931.58    
    205000   205000         0.18641162     0.16173072     307.35481      272.71909      34.635714      30.049944      296.2891       15.354409      129730.42      129659.75      26512.226      103147.53    
    206000   206000         0.18640312     0.23543375     310.35518      286.56225      23.792931      30.051315      299.41141      114.34543      130178.65      129652.39      26791.614      102860.78    
    207000   207000         0.18662711     0.25735255     311.18157      289.41509      21.766479      30.015247      298.62277      123.3682       130221.85      129654.07      26721.046      102933.02    
    208000   208000         0.18688291     0.30787879     304.09588      285.90152      18.194364      29.974163      297.74489     -224.99145      128623.2       129658.68      26642.491      103016.19    
    209000   209000         0.18669486     0.1531036      318.90476      282.31738      36.587375      30.004355      297.50509      248.8489       130800.87      129655.59      26621.035      103034.56    
    210000   210000         0.18644634     0.10064204     329.61166      273.95242      55.659232      30.044348      299.43447      182.30386      130493.66      129654.64      26793.677      102860.96    
    211000   211000         0.18619744     0.15277661     313.80795      277.14227      36.665682      30.08451       298.23414      412.03193      131549.66      129653.36      26686.27       102967.09    
    212000   212000         0.18614981     0.22131269     311.7444       286.43334      25.31106       30.092209      298.56267     -168.54722      128877.26      129652.96      26715.668      102937.29    
    213000   213000         0.18622        0.11369652     326.33941      277.0709       49.268514      30.080866      297.77617     -457.38738      127548.42      129653.46      26645.291      103008.17    
    214000   214000         0.18618758     0.20202939     311.60034      283.87339      27.72695       30.086103      299.80648      577.34522      132309.25      129652.13      26826.965      102825.16    
    215000   215000         0.18630807     0.19465783     314.71388      285.93693      28.776951      30.066646      298.43996      174.63179      130461.14      129657.43      26704.688      102952.74    
    216000   216000         0.18652617     0.18591067     308.43349      278.30258      30.130916      30.031491      297.42662      12.473906      129715.48      129658.08      26614.013      103044.06    
    217000   217000         0.18674581     0.16976784     315.32538      282.32938      32.995995      29.996169      299.39016      199.0564       130573.56      129657.44      26789.712      102867.73    
    218000   218000         0.18691861     0.29588304     308.29189      289.35988      18.932004      29.968438      298.29438      438.33211      131672.69      129655.35      26691.661      102963.69    
    219000   219000         0.18710118     0.32582758     309.77342      292.58132      17.192095      29.939196      299.53555      167.42756      130423.81      129653.26      26802.722      102850.54    
    220000   220000         0.18720702     0.42258798     302.69661      289.441        13.255604      29.922269      297.16609     -58.374832      129393.45      129662.1       26590.7        103071.41    
    221000   221000         0.18721035     0.17440008     312.1701       280.05051      32.119589      29.921737      298.6584       565.32912      132259.77      129657.95      26724.234      102933.72    
    222000   222000         0.18711851     0.16771329     318.79872      285.39851      33.400209      29.936423      300.25935      434.50413      131651.84      129652.12      26867.488      102784.63    
    223000   223000         0.187082       0.1862207      316.89258      286.81183      30.080753      29.942266      300.76187      752.44192      133115.66      129652.69      26912.454      102740.24    
    224000   224000         0.18702029     0.16862147     316.72115      283.50084      33.220318      29.952145      299.37762     -185.69741      128792.82      129647.45      26788.59       102858.86    
    225000   225000         0.1870502      0.287597       309.85538      290.37792      19.477459      29.947356      297.44357     -200.49816      128735.11      129657.87      26615.529      103042.34    
    226000   226000         0.18708981     0.18787015     316.06335      286.2467       29.816651      29.941015      297.38672      87.023171      130060.54      129660.03      26610.442      103049.59    
    227000   227000         0.18705382     0.16590666     319.74555      285.98163      33.763918      29.946776      298.35784      555.20089      132208.27      129653.07      26697.339      102955.73    
    228000   228000         0.18704537     0.12468483     320.3464       275.41986      44.926548      29.948129      297.61258      307.87141      131077.02      129660.1       26630.653      103029.45    
    229000   229000         0.18685016     0.19839248     307.2126       278.97737      28.235237      29.979417      298.83786     -119.06647      129109.66      129657.64      26740.292      102917.35    
    230000   230000         0.18687743     0.13237937     322.76467      280.44948      42.315194      29.975043      298.71047     -71.070065      129332.96      129660.05      26728.893      102931.16    
    231000   231000         0.18686287     0.32537693     305.39303      288.17712      17.215907      29.977378      299.21468      136.18006      130285.66      129658.92      26774.01       102884.91    
    232000   232000         0.18679483     0.13660459     324.90474      283.89837      41.006374      29.988296      299.19641      346.99743      131252.69      129655.7       26772.375      102883.32    
    233000   233000         0.18665988     0.17308312     314.88087      282.51689      32.36398       30.009978      298.81438      217.39896      130660.38      129659.84      26738.191      102921.65    
    234000   234000         0.18668854     0.13825308     321.14429      280.62687      40.517426      30.00537       299.67719     -189.42271      128781.34      129653.12      26815.396      102837.72    
    235000   235000         0.18679208     0.29397352     300.01139      280.95641      19.054978      29.988738      298.8704       348.819        131262.14      129656.77      26743.203      102913.57    
    236000   236000         0.18686387     0.16209099     319.11259      284.55386      34.558731      29.977217      300.16416     -265.79229      128424.92      129648.18      26858.971      102789.21    
    237000   237000         0.18682911     0.21469029     310.14332      284.05151      26.091813      29.982794      298.73822     -344.23009      128068.6       129652.86      26731.376      102921.48    
    238000   238000         0.18687016     0.2931199      308.77899      289.66852      19.110469      29.976209      298.46878      338.20755      131211.52      129654.99      26707.266      102947.72    
    239000   239000         0.18686521     0.26853539     313.89986      293.03982      20.86004       29.977003      298.77827     -88.840583      129248.72      129657.59      26734.96       102922.63    
    240000   240000         0.18682228     0.13627582     320.38907      279.28377      41.105301      29.983891      298.8799       93.329767      130081.68      129652.15      26744.054      102908.09    
    241000   241000         0.18674805     0.18955833     313.60075      284.04964      29.551108      29.995808      298.7134      -222.06773      128637.02      129659.05      26729.155      102929.89    
    242000   242000         0.18683764     0.3209993      304.58997      287.13928      17.450688      29.981425      298.85666      31.680026      129801.48      129655.67      26741.974      102913.7     
    243000   243000         0.18689913     0.19804441     318.79926      290.5144       28.284861      29.971562      299.51965      361.53273      131316.32      129652.44      26801.299      102851.14    
    244000   244000         0.18678516     0.1648586      311.67935      277.70078      33.978567      29.989849      298.37566     -7.9403712      129613.62      129650.16      26698.934      102951.23    
    245000   245000         0.18663088     0.21739623     311.42226      285.65521      25.767047      30.01464       298.375        340.0153       131217.65      129652.8       26698.874      102953.93    
    246000   246000         0.1865242      0.18508634     305.46629      275.20117      30.265111      30.031807      296.39766     -113.29171      129140.65      129662.05      26521.941      103140.11    
    247000   247000         0.18649992     0.15830326     323.52714      288.14152      35.385619      30.035717      299.9306       262.53761      130864.83      129656.55      26838.071      102818.48    
    248000   248000         0.18629161     0.17196722     314.9582       282.38421      32.573992      30.069303      299.93285      143.1826       130311.49      129652.52      26838.273      102814.25    
    249000   249000         0.18625036     0.15953432     324.80214      289.68958      35.112562      30.075963      298.42735      140.0615       130302.12      129657.51      26703.558      102953.95    
    250000   250000         0.18629913     0.15676666     319.17167      283.43921      35.732462      30.068089      299.40659      844.91436      133540.17      129651.62      26791.182      102860.44    
    251000   251000         0.18640992     0.14827314     322.22198      284.44266      37.779324      30.050218      298.31411     -128.72009      129068.18      129660.59      26693.426      102967.16    
    252000   252000         0.18659266     0.18360236     321.39437      290.88464      30.509731      30.020788      299.53514      457.89075      131759.95      129652.6       26802.685      102849.91    
    253000   253000         0.18670432     0.42582199     304.31417      291.15924      13.154931      30.002834      299.07857     -221.34304      128640.62      129659.31      26761.831      102897.48    
    254000   254000         0.18703013     0.22576599     317.75117      292.93938      24.811793      29.950569      300.47545     -35.880377      129482.41      129647.54      26886.825      102760.72    
    255000   255000         0.18726901     0.25690048     310.05924      288.25446      21.804781      29.912363      299.70104     -155.27072      128936.06      129650.67      26817.53       102833.14    
    256000   256000         0.18743656     0.20349178     320.17921      292.65152      27.527691      29.885626      299.29789     -395.84911      127831.85      129653.67      26781.455      102872.21    
    257000   257000         0.1875354      0.42535864     313.22216      300.0529       13.169261      29.869874      298.59744      4.2517195      129677.45      129657.88      26718.779      102939.1     
    258000   258000         0.18761116     0.30532415     313.75406      295.40747      18.346596      29.857812      299.20001      88.979019      130063.72      129654.21      26772.697      102881.51    
    259000   259000         0.18774363     0.21414834     315.63159      289.47375      26.157843      29.836745      300.73402     -217.34173      128651.77      129652.04      26909.962      102742.08    
    260000   260000         0.18786029     0.4943034      303.0324       291.69997      11.33243       29.818217      298.67555      151.30852      130353.41      129657.05      26725.768      102931.28    
    261000   261000         0.1879768      0.30377161     310.10074      291.66038      18.440363      29.799735      299.93023      228.92971      130708.44      129654.84      26838.038      102816.8     
    262000   262000         0.18809328     0.25277921     304.95391      282.79362      22.160283      29.781282      299.51439     -474.30119      127471.75      129654.63      26800.828      102853.8     
    263000   263000         0.18813947     0.16076208     325.88253      291.03812      34.844403      29.77397       299.89935      598.44058      132408.01      129653.81      26835.274      102818.53    
    264000   264000         0.18815938     0.17304009     318.27353      285.9015       32.372029      29.770819      299.81567     -8.6382327      129611.27      129651.03      26827.787      102823.24    
    265000   265000         0.18818153     0.25817612     303.63032      281.93327      21.697044      29.767315      297.38247     -229.08999      128605.18      129659.52      26610.062      103049.46    
    266000   266000         0.18821457     0.23305193     314.79027      290.75417      24.036097      29.762089      299.11176     -260.09739      128454.53      129651.58      26764.8        102886.78    
    267000   267000         0.18818751     0.22274427     310.29535      285.14697      25.148386      29.766369      298.99079     -359.72275      127997.48      129653.03      26753.976      102899.05    
    268000   268000         0.18816275     0.3004942      312.2083       293.56681      18.641487      29.770286      297.6317       533.32541      132111.72      129657.19      26632.364      103024.83    
    269000   269000         0.18815157     0.16276977     322.69528      288.28067      34.414613      29.772055      298.99737      32.890782      129805.04      129653.67      26754.565      102899.1     
    270000   270000         0.18822421     0.43483492     299.37139      286.48912      12.882265      29.760565      299.12089     -214.68259      128666.54      129654.57      26765.617      102888.96    
    271000   271000         0.18824429     0.21097503     313.1562       286.60491      26.551288      29.757391      299.89831      436.44395      131666.72      129658.07      26835.182      102822.89    
    272000   272000         0.18825132     0.18491564     311.68382      281.39077      30.29305       29.756278      299.45949      557.78722      132219.06      129651.95      26795.916      102856.04    
    273000   273000         0.18817972     0.24673529     313.01314      290.31003      22.703112      29.767601      299.82836     -171.31462      128871.2       129659.64      26828.923      102830.72    
    274000   274000         0.18807761     0.15938991     315.20579      280.06141      35.144375      29.783763      298.6707      -42.153849      129462.73      129656.74      26725.334      102931.4     
    275000   275000         0.1880459      0.15855869     316.43552      281.10691      35.328615      29.788785      298.94282      20.314815      129749.45      129655.96      26749.683      102906.28    
    276000   276000         0.18815454     0.2955731      312.80926      293.85741      18.951856      29.771585      297.97261      112.60879      130177.52      129659.26      26662.868      102996.4     
    277000   277000         0.18819554     0.20761202     314.99539      288.01401      26.98138       29.765098      298.75749      261.28444      130855.85      129653.34      26733.1        102920.24    
    278000   278000         0.18820479     0.20863887     313.74258      286.894        26.848586      29.763635      300.1103      -317.27536      128194.89      129655.09      26854.151      102800.94    
    279000   279000         0.18838393     0.22175578     313.43471      288.17422      25.260487      29.735332      299.55405      224.09881      130690.48      129659.11      26804.377      102854.73    
    280000   280000         0.18863614     0.23626964     306.22119      282.51244      23.708754      29.695576      299.15037      31.081385      129797.74      129654.7       26768.255      102886.44    
    281000   281000         0.18880172     0.30480564     313.6375       295.25969      18.377806      29.669533      299.55781      95.389703      130095.23      129656.22      26804.714      102851.5     
    282000   282000         0.18890729     0.36001368     306.35196      290.79238      15.559572      29.652952      300.00949      62.041499      129941.42      129655.88      26845.13       102810.75    
    283000   283000         0.18906434     0.31513554     307.66544      289.89005      17.775395      29.62832       300.05132      133.0754       130267.1       129654.65      26848.873      102805.77    
    284000   284000         0.18910824     0.22210704     314.22233      289.00179      25.220537      29.621441      299.69103      299.82216      131035.25      129655.37      26816.634      102838.74    
    285000   285000         0.18907268     0.22319417     309.85671      284.75902      25.097693      29.627013      298.148        423.21471      131600.96      129653.2       26678.562      102974.64    
    286000   286000         0.18903339     0.16696324     315.37719      281.82694      33.550253      29.633171      297.26666     -250.02839      128514.07      129664.78      26599.7        103065.08    
    287000   287000         0.18904918     0.46894611     305.20766      293.26246      11.945208      29.630696      298.39253     -433.75036      127662.49      129658.75      26700.443      102958.3     
    288000   288000         0.18918528     0.19331022     316.05579      287.07823      28.977561      29.60938       299.07056      67.807896      129968.64      129656.56      26761.114      102895.45    
    289000   289000         0.1891596      0.17563558     318.97942      287.08578      31.893644      29.6134        299.9222       616.50242      132491.74      129654.41      26837.319      102817.09    
    290000   290000         0.18927933     0.60500482     302.00187      292.74301      9.2588664      29.594667      297.44269     -118.10278      129122.02      129665.56      26615.451      103050.11    
    291000   291000         0.18932695     0.21509904     316.15654      290.11431      26.04223       29.587223      300.86939      285.36729      130965.95      129652.6       26922.075      102730.53    
    292000   292000         0.18932098     0.16761546     320.8047       287.385        33.419702      29.588156      299.36622     -275.15914      128392.17      129658.54      26787.57       102870.97    
    293000   293000         0.1894148      0.36669538     305.8662       290.59015      15.276055      29.573502      298.68976      474.22415      131840.16      129657.64      26727.04       102930.6     
    294000   294000         0.18936705     0.13514132     323.24252      281.79215      41.450378      29.580958      299.69939     -86.527181      129256.45      129654.67      26817.382      102837.29    
    295000   295000         0.18934907     0.18631636     321.82441      291.75911      30.065308      29.583767      297.7938       190.27018      130537.74      129662.06      26646.869      103015.19    
    296000   296000         0.18936985     0.17885118     318.07106      286.75084      31.320223      29.580521      299.57893      420.81428      131588.52      129651.8       26806.604      102845.2     
    297000   297000         0.18942408     0.4498024      311.91723      299.46363      12.453599      29.572052      300.59205      46.343828      129867.25      129653.96      26897.258      102756.7     
    298000   298000         0.18947676     0.29076932     308.99607      289.73111      19.264958      29.56383       297.93353     -597.85396      126904.64      129656.15      26659.371      102996.77    
    299000   299000         0.18953476     0.1514837      325.46552      288.4869       36.978623      29.554784      300.86354      291.84963      130992.45      129649.27      26921.551      102727.72    
    300000   300000         0.1896292      0.32406893     307.58714      290.30175      17.285393      29.540065      299.41928     -106.71119      129163.37      129654.49      26792.318      102862.17    
    301000   301000         0.18989222     0.27758083     305.46823      285.28795      20.18028       29.499148      299.69513      377.77346      131393.63      129655         26817.001      102838       
    302000   302000         0.19006439     0.25955326     305.87379      284.29187      21.581924      29.472427      299.71505      370.54235      131355.65      129650.3       26818.783      102831.52    
    303000   303000         0.19018824     0.30123411     305.97092      287.37522      18.595699      29.453235      298.47254     -378.03145      127919.65      129659.47      26707.602      102951.87    
    304000   304000         0.19031874     0.33236955     309.04175      292.18804      16.853706      29.433039      298.59391     -87.586264      129257.14      129660.23      26718.463      102941.77    
    305000   305000         0.19040214     0.16066384     316.62571      281.76001      34.865709      29.420146      299.85904     -545.20076      127142.42      129651.6       26831.668      102819.93    
    306000   306000         0.19046163     0.25125246     313.76434      291.4694       22.294941      29.410957      299.70076      37.252879      129828.41      129656.96      26817.505      102839.46    
    307000   307000         0.19047978     0.14309235     313.11251      273.96535      39.147159      29.408155      299.69471     -266.80922      128425.88      129653.82      26816.964      102836.86    
    308000   308000         0.19052313     0.38496882     303.73706      289.18612      14.550941      29.401463      297.90875     -383.14702      127889.1       129652.46      26657.154      102995.3     
    309000   309000         0.19055553     0.20311922     313.6322       286.05402      27.578182      29.396464      298.20557      412.69645      131550.71      129651.35      26683.714      102967.64    
    310000   310000         0.19063222     0.24134226     311.27229      288.06186      23.210434      29.384638      298.49695      41.278317      129841.99      129652.02      26709.787      102942.23    
    311000   311000         0.19076415     0.1532312      315.91636      279.35945      36.556909      29.364316      298.97504     -203.5005       128718.68      129655.25      26752.567      102902.68    
    312000   312000         0.19088194     0.23010844     316.702        292.35844      24.343561      29.346196      299.18306     -305.64524      128244.88      129651.56      26771.181      102880.38    
    313000   313000         0.1910978      0.15181        325.3273       288.42816      36.899141      29.313048      300.31924     -33.750814      129491.46      129646.8       26872.847      102773.95    
    314000   314000         0.19133112     0.308046       306.72488      288.54039      18.184488      29.277301      298.54043     -136.23503      129029.95      129656.94      26713.678      102943.26    
    315000   315000         0.19151169     0.31466883     307.33501      289.53325      17.80176       29.249697      298.08775      366.86389      131344.16      129655.74      26673.171      102982.57    
    316000   316000         0.19174417     0.42239091     307.55516      294.29338      13.261788      29.214232      298.52955     -173.0187       128859.68      129655.97      26712.703      102943.26    
    317000   317000         0.19192386     0.25287418     315.35321      293.20125      22.15196       29.186881      300.24172     -305.14546      128245.19      129649.56      26865.91       102783.65    
    318000   318000         0.19201721     0.16676452     313.36342      279.77319      33.590231      29.172692      299.13745      295.96543      131013.32      129651.19      26767.099      102884.09    
    319000   319000         0.19218842     0.19746799     317.8957       289.52827      28.367427      29.146703      298.25461      182.66233      130492.47      129651.8       26688.102      102963.7     
    320000   320000         0.19225973     0.22489081     312.62163      287.71328      24.908349      29.135892      299.99454      24.326084      129767.03      129655.07      26843.792      102811.28    
    321000   321000         0.19239539     0.4781031      295.5442       283.82778      11.716424      29.115349      299.47589     -17.125811      129571.5       129650.32      26797.383      102852.94    
    322000   322000         0.19253513     0.28845001     314.7071       295.28724      19.41986       29.094216      299.18729     -245.69196      128516.9       129647.65      26771.559      102876.09    
    323000   323000         0.19267934     0.21959403     318.30897      292.79981      25.509158      29.072441      299.47544      222.43599      130676.29      129652.57      26797.343      102855.23    
    324000   324000         0.19264025     0.15973649     317.37123      282.30311      35.068122      29.078341      300.23089     -90.654511      129238.81      129656.03      26864.941      102791.09    
    325000   325000         0.19261587     0.32430814     307.82326      290.55062      17.272644      29.082022      299.01635      77.836549      130009.51      129651.28      26756.263      102895.02    
    326000   326000         0.19265494     0.17155087     323.92025      291.2672       32.653049      29.076124      300.05138     -21.390746      129554.25      129652.7       26848.878      102803.82    
    327000   327000         0.19266201     0.26362381     312.62479      291.3761       21.248683      29.075057      300.82859     -47.084842      129438.47      129655.17      26918.424      102736.74    
    328000   328000         0.19275911     0.35008365     311.21406      295.21314      16.000915      29.06041       299.10887      629.1255       132543.84      129648.41      26764.542      102883.87    
    329000   329000         0.19288273     0.1674452      310.78636      277.33267      33.453684      29.041785      300.21373     -1.8087828      129642.04      129650.36      26863.406      102786.96    
    330000   330000         0.19286125     0.18253303     318.77043      288.08197      30.688467      29.04502       300.13245      64.229953      129955.38      129659.77      26856.133      102803.64    
    331000   331000         0.19302965     0.21057193     307.22922      280.6271       26.602115      29.019681      300.43369      614.72893      132481.43      129652.26      26883.088      102769.17    
    332000   332000         0.19307105     0.23408588     312.75937      288.82944      23.92993       29.013458      298.24887     -160.21773      128922.87      129660.24      26687.589      102972.65    
    333000   333000         0.19312632     0.31062095     305.83412      287.80037      18.033744      29.005154      298.70613      173.36097      130450.07      129652.21      26728.505      102923.71    
[...]
   1431000   1431000        0.19415875     0.18018401     315.7818       284.69325      31.088545      28.850922      299.83754      51.443962      129887.97      129651.21      26829.744      102821.46    
   1432000   1432000        0.1941915      0.83039913     300.36973      293.62399      6.7457426      28.846056      299.16756      318.20641      131120.94      129656.45      26769.794      102886.66    
   1433000   1433000        0.19421656     0.27365501     306.64988      286.18009      20.469783      28.842333      299.3145      -443.49767      127614.29      129655.4       26782.942      102872.46    
   1434000   1434000        0.19422778     0.13725053     310.53315      269.71977      40.813385      28.840667      300.45016     -203.79701      128717.88      129655.82      26884.562      102771.25    
   1435000   1435000        0.19423633     0.22771475     309.07256      284.47311      24.599456      28.839398      300.76266     -273.46215      128393.53      129652.08      26912.525      102739.56    
   1436000   1436000        0.19424874     0.2166571      303.40975      277.55479      25.854952      28.837556      300.68447     -239.6271       128555.25      129658.09      26905.528      102752.56    
   1437000   1437000        0.1942719      0.22287081     310.4104       285.2763       25.134108      28.834117      299.50137     -231.33598      128588.27      129652.95      26799.663      102853.29    
   1438000   1438000        0.19428234     0.18139833     308.35326      277.47282      30.880431      28.832568      299.26733     -142.56685      128998.93      129655.06      26778.721      102876.34    
   1439000   1439000        0.19429301     0.22622979     311.41444      286.65352      24.760925      28.830985      300.15191     -145.54401      128989.97      129659.8       26857.874      102801.93    
   1440000   1440000        0.19428918     0.16195183     319.19944      284.61102      34.588426      28.831553      299.39996      240.67683      130761.64      129653.97      26790.589      102863.38    
   1441000   1441000        0.19430164     0.18643641     309.39901      279.35307      30.045948      28.829705      299.24533      206.62964      130604.73      129653.76      26776.753      102877       
   1442000   1442000        0.19431393     0.15269081     316.53926      279.85297      36.686286      28.827881      299.43138      359.72233      131312.83      129657.28      26793.4        102863.88    
   1443000   1443000        0.19431394     0.17712669     318.99584      287.37069      31.625153      28.827879      298.627       -472.48135      127483.14      129657.64      26721.423      102936.22    
   1444000   1444000        0.19430441     0.15619595     313.81688      277.95385      35.863023      28.829294      297.76467      97.933156      130111.28      129660.56      26644.262      103016.3     
   1445000   1445000        0.19429058     0.24037969     318.93429      295.63091      23.303378      28.831346      299.72558     -450.03334      127578.17      129649.36      26819.726      102829.64    
   1446000   1446000        0.19430225     0.17969687     315.20362      284.0308       31.172824      28.829614      300.20463      410.39057      131539.36      129650.62      26862.591      102788.03    
   1447000   1447000        0.19430997     0.15603267     319.22627      283.32572      35.900551      28.828468      300.74072     -39.014988      129471.51      129651.07      26910.561      102740.51    
   1448000   1448000        0.19430841     0.17304341     311.20259      278.83118      32.371407      28.8287        299.88175     -264.30432      128433.4       129649.81      26833.7        102816.11    
   1449000   1449000        0.19430364     0.27080604     306.31345      285.62832      20.685132      28.829408      299.10712     -69.878316      129333.99      129655.59      26764.385      102891.21    
   1450000   1450000        0.19430344     0.30837453     308.55691      290.3918       18.165115      28.829436      297.71402      272.14605      130906.84      129654.34      26639.73       103014.61    
   1451000   1451000        0.19430435     0.14066697     316.90339      277.08126      39.822134      28.829303      296.7963      -14.146596      129599.75      129664.86      26557.611      103107.24    
   1452000   1452000        0.19430411     0.18150216     318.4582       287.59543      30.862767      28.829338      299.54187     -6.9397161      129627.51      129659.45      26803.287      102856.17    
   1453000   1453000        0.19429355     0.2076413      320.4792       293.50162      26.977576      28.830905      298.148       -393.4342       127845.33      129656.04      26678.562      102977.48    
   1454000   1454000        0.19432227     0.30277438     308.9175       290.4164       18.501099      28.826644      300.36148     -578.17298      126992.04      129652.97      26876.627      102776.34    
   1455000   1455000        0.19435091     0.12978861     325.76194      282.60208      43.159864      28.822395      299.61263      27.877231      129782.2       129653.9       26809.619      102844.28    
   1456000   1456000        0.19436375     0.26137842     301.88053      280.4493       21.431221      28.820492      298.1349      -670.51437      126570.14      129656.05      26677.39       102978.66    
   1457000   1457000        0.19436704     0.25509158     319.97939      298.01999      21.959403      28.820003      300.02772     -139.57281      129011.48      129653.84      26846.762      102807.08    
   1458000   1458000        0.19437827     0.21658244     309.41669      283.55282      25.863864      28.818339      298.71152     -440.22313      127629.58      129655.62      26728.987      102926.63    
   1459000   1459000        0.19437364     0.19856753     316.68665      288.47631      28.210347      28.819025      299.83825     -541.23719      127160.17      129651.11      26829.808      102821.3     
   1460000   1460000        0.19437821     0.18889662     313.57034      283.91571      29.654627      28.818347      299.3167       157.54661      130384.1       129659.02      26783.139      102875.88    
   1461000   1461000        0.19438086     0.15624293     322.55633      286.7041       35.852239      28.817954      299.15041     -730.61274      126294.31      129656.81      26768.259      102888.55    
   1462000   1462000        0.19438277     0.17962896     308.84857      277.66396      31.184609      28.817672      297.87873      394.33093      131472.25      129657.42      26654.468      103002.95    
   1463000   1463000        0.19439491     0.32847325     300.21015      283.15653      17.053623      28.815871      297.15133     -149.36527      128968.54      129655.96      26589.379      103066.59    
   1464000   1464000        0.19439461     0.14741748     312.56419      274.56558      37.998607      28.815917      298.7363       516.09915      132029.37      129654.12      26731.204      102922.92    
   1465000   1465000        0.19441286     0.28395207     306.30221      286.57473      19.72748       28.813211      298.70422     -5.29909        129632.85      129657.24      26728.333      102928.91    
   1466000   1466000        0.19445552     0.23744634     312.68065      289.08939      23.591262      28.80689       299.81386     -23.402614      129548.14      129655.84      26827.625      102828.22    
   1467000   1467000        0.19448401     0.14325998     319.02599      279.92464      39.101352      28.80267       299.22225     -431.07042      127674.61      129658.52      26774.687      102883.84    
   1468000   1468000        0.19450795     0.2466801      311.2915       288.58331      22.708191      28.799125      299.03111     -344.30024      128072.35      129656.93      26757.584      102899.34    
   1469000   1469000        0.19452334     0.19118747     318.79744      289.49814      29.299299      28.796846      298.42313      146.74246      130334.05      129658.7       26703.181      102955.51    
   1470000   1470000        0.19453596     0.49872533     309.27092      298.03897      11.231952      28.794978      298.70942     -548.06612      127136.23      129658.59      26728.799      102929.8     
   1471000   1471000        0.19455069     0.22916052     313.91586      289.4716       24.444258      28.792798      298.76805     -460.23779      127538.51      129656.66      26734.045      102922.62    
   1472000   1472000        0.19455134     0.20035731     315.42749      287.46915      27.958345      28.792703      297.06771     -194.91504      128761.73      129658.79      26581.897      103076.89    
   1473000   1473000        0.19453976     0.21724972     311.21502      285.4306       25.784424      28.794416      301.3224       477.39986      131848.03      129650.89      26962.611      102688.28    
   1474000   1474000        0.19452503     0.18398942     313.37766      282.93211      30.445549      28.796597      296.99837      77.081594      130014.57      129659.82      26575.692      103084.13    
   1475000   1475000        0.19451136     0.15220672     316.57886      279.77589      36.802967      28.79862       298.40539     -39.117408      129477.98      129658.01      26701.594      102956.42    
   1476000   1476000        0.19448479     0.16646476     317.18931      283.5386       33.650718      28.802555      298.61273     -209.02458      128689.66      129651.66      26720.147      102931.51    
   1477000   1477000        0.19446158     0.14074724     316.20471      276.40529      39.799423      28.805992      298.74629     -220.34418      128641.9       129655.99      26732.098      102923.89    
   1478000   1478000        0.1944676      0.19400676     312.74866      283.87514      28.873523      28.8051        299.68488     -41.622828      129463.69      129655.25      26816.084      102839.17    
   1479000   1479000        0.19448182     0.23363272     306.81952      282.84318      23.976346      28.802995      300.41282      125.86238      130233.67      129654.41      26881.22       102773.19    
   1480000   1480000        0.19452005     0.21189095     311.64696      285.21044      26.436518      28.797334      298.36937     -448.61883      127592.31      129656.99      26698.37       102958.62    
   1481000   1481000        0.19454024     0.17725792     314.18478      282.58304      31.60174       28.794345      299.60994      105.19622      130140.36      129656.22      26809.379      102846.84    
   1482000   1482000        0.19455737     0.26188008     313.62277      292.2326       21.390168      28.791809      298.35185     -578.00702      126991.69      129651.86      26696.803      102955.05    
   1483000   1483000        0.19458651     0.16284062     321.46793      287.06829      34.399642      28.787499      298.15664     -457.6241       127551.31      129657.44      26679.336      102978.1     
   1484000   1484000        0.19457631     0.21913471     307.45536      281.89273      25.562627      28.789007      298.35716      158.77543      130392.15      129661.41      26697.278      102964.14    
   1485000   1485000        0.19460729     0.18089475     304.08673      273.12033      30.966399      28.784424      298.18632     -970.11052      125194.04      129658.78      26681.992      102976.79    
   1486000   1486000        0.19464052     0.16678474     319.49468      285.90852      33.586159      28.77951       299.68751     -74.55937       129310.51      129653.66      26816.319      102837.34    
   1487000   1487000        0.19465298     0.27542158     310.08014      289.74166      20.338489      28.777668      297.11101     -676.51043      126549.42      129662.92      26585.771      103077.15    
   1488000   1488000        0.19465291     0.20140308     319.61692      291.80375      27.813173      28.777678      300.32758     -116.89157      129119.16      129657.13      26873.594      102783.54    
   1489000   1489000        0.19466392     0.21975831     318.18539      292.6953       25.490089      28.77605       297.44371     -343.42445      128079.66      129660.21      26615.542      103044.67    
   1490000   1490000        0.19469041     0.42323268     312.56264      299.32723      13.235412      28.772135      299.60591     -51.752704      129418.23      129656.41      26809.018      102847.39    
   1491000   1491000        0.19470629     0.24851706     316.73868      294.19834      22.540339      28.769788      299.24508     -123.48341      129085.41      129653.72      26776.73       102876.99    
   1492000   1492000        0.19472098     0.1599714      321.5444       286.52778      35.016627      28.767619      299.20562     -205.45463      128709.77      129655.34      26773.199      102882.14    
   1493000   1493000        0.19473838     0.36903741     303.24578      288.06668      15.179108      28.765048      296.97299     -216.99163      128669.85      129668.51      26573.421      103095.09    
   1494000   1494000        0.19479188     0.24211335     314.84662      291.7101       23.136514      28.757148      300.88829     -229.16273      128597.26      129651.94      26923.766      102728.17    
   1495000   1495000        0.19482061     0.18320335     319.55592      288.97974      30.576181      28.752906      299.16551     -91.649112      129232.29      129654.09      26769.61       102884.48    
   1496000   1496000        0.19484789     0.15153219     317.9802       281.01341      36.966791      28.748881      298.8655      -165.7904       128895.46      129658.48      26742.765      102915.71    
   1497000   1497000        0.19485289     0.2184744      312.95019      287.3103       25.639886      28.748144      299.335       -842.21421      125781.04      129657.16      26784.776      102872.39    
   1498000   1498000        0.19486118     0.19636095     311.93324      283.40588      28.527357      28.74692       296.63056      128.68836      130257.52      129665.26      26542.78       103122.48    
   1499000   1499000        0.1948405      0.13946773     326.28387      286.11931      40.164552      28.749972      299.7117       191.45106      130531.61      129650.49      26818.484      102832.01    
   1500000   1500000        0.19481954     0.12700311     321.6019       277.49543      44.106469      28.753065      300.06705     -210.46555      128685.85      129654.48      26850.281      102804.2     
   1501000   1501000        0.19481663     0.1324202      324.30269      282.00054      42.302147      28.753494      299.82644     -204.11065      128711.16      129650.54      26828.75       102821.79    
   1502000   1502000        0.19480934     0.13754103     323.35766      282.63048      40.727185      28.754571      300.67299     -532.1655       127209.43      129658.62      26904.501      102754.12    
   1503000   1503000        0.19481309     0.17553219     316.54268      284.63025      31.912431      28.754017      299.18869     -265.9545       128429.75      129653.75      26771.684      102882.07    
   1504000   1504000        0.19481214     0.15525256     315.26298      279.18203      36.080944      28.754156      300.04084     -199.65466      128732.47      129651.34      26847.936      102803.4     
   1505000   1505000        0.19482752     0.60807434     302.19664      292.98451      9.2121283      28.751887      298.88665     -367.81376      127962.75      129655.55      26744.657      102910.89    
   1506000   1506000        0.19482749     0.20709677     311.35629      284.30778      27.048509      28.751891      298.34301     -886.92303      125576.16      129658.05      26696.012      102962.04    
   1507000   1507000        0.19485612     0.27350079     318.24563      297.7643       20.481326      28.747667      298.00818      171.37848      130446.76      129658.03      26666.052      102991.98    
   1508000   1508000        0.19487252     0.1500267      328.16845      290.83071      37.337746      28.745248      299.93333     -322.25899      128172.9       129656.04      26838.316      102817.72    
   1509000   1509000        0.19486585     0.44534796     312.15988      299.58171      12.578162      28.746231      300.91383      50.749548      129882.1       129648.54      26926.051      102722.49    
   1510000   1510000        0.19487158     0.17017282     315.14385      282.22638      32.91747       28.745386      299.57726     -64.944398      129346.55      129645.44      26806.454      102838.99    
   1511000   1511000        0.19486294     0.21333528     309.36254      283.105        26.257536      28.746661      298.1458      -104.48627      129175.85      129656.73      26678.365      102978.36    
   1512000   1512000        0.19484822     0.15473196     312.66293      276.46059      36.202338      28.748832      299.22777      9.0748295      129701.62      129659.85      26775.181      102884.67    
   1513000   1513000        0.19485192     0.29861771     306.01743      287.2588       18.758629      28.748286      297.87641     -311.60987      128224.92      129659.04      26654.261      103004.78    
   1514000   1514000        0.19486338     0.25624397     308.06163      286.20098      21.860646      28.746595      299.03887     -324.12833      128164.55      129656.28      26758.278      102898.01    
   1515000   1515000        0.19486514     0.12723889     322.81025      278.78551      44.024737      28.746336      300.96824     -405.24127      127783.4       129648.44      26930.92       102717.52    
   1516000   1516000        0.19487908     0.20145726     310.05069      282.245        27.805694      28.744279      299.26318     -393.05548      127847.07      129656.03      26778.35       102877.68    
   1517000   1517000        0.19491032     0.15428736     312.70417      276.39751      36.306661      28.739673      298.85478     -272.59778      128400.9       129655.48      26741.806      102913.68    
   1518000   1518000        0.19492017     0.15177276     318.67778      281.76959      36.908196      28.738221      300.01713      57.562181      129915.68      129650.76      26845.814      102804.95    
   1519000   1519000        0.19491978     0.12474639     325.63749      280.73311      44.904376      28.738278      299.31589      105.46306      130141.23      129655.85      26783.066      102872.79    
   1520000   1520000        0.1949225      0.1621807      310.03172      275.49211      34.539615      28.737878      296.89964     -265.45999      128435.12      129656.85      26566.858      103089.99    
Loop time of 21592.8 on 32 procs for 1500000 steps with 30020 atoms

Performance: 6.002 ns/day, 3.999 hours/ns, 69.468 timesteps/s, 2.085 Matom-step/s
99.4% CPU use with 32 MPI tasks x 1 OpenMP threads

MPI task timing breakdown:
Section |  min time  |  avg time  |  max time  |%varavg| %total
---------------------------------------------------------------
Pair    | 9700.4     | 10674      | 11733      | 552.2 | 49.43
Bond    | 224.34     | 253.9      | 274.42     |  77.4 |  1.18
Kspace  | 7436.7     | 8482.7     | 9553.2     | 624.9 | 39.28
Neigh   | 756.62     | 775.93     | 797.38     |  47.5 |  3.59
Comm    | 1019       | 1193.1     | 1365.5     | 268.7 |  5.53
Output  | 0.13737    | 0.17985    | 0.39288    |  10.3 |  0.00
Modify  | 137.7      | 175.52     | 213.78     | 153.2 |  0.81
Other   |            | 37.75      |            |       |  0.17

Nlocal:        938.125 ave         984 max         840 min
Histogram: 1 0 0 0 4 6 6 5 7 3
Nghost:        10705.4 ave       10864 max       10556 min
Histogram: 3 0 2 1 14 7 1 1 1 2
Neighs:         512853 ave      565617 max      450994 min
Histogram: 1 0 2 5 8 5 2 4 4 1

Total # of neighbors = 16411289
Ave neighs/atom = 546.67851
Ave special neighs/atom = 10.787475
Neighbor list builds = 59040
Dangerous builds = 0
Total wall time: 6:04:46
