units real
atom_style full
boundary p p p

# styles
pair_style lj/charmm/coul/long 8.0 12.0
kspace_style pppm 1e-6
dielectric 1.000000
bond_style harmonic
angle_style harmonic
dihedral_style fourier
improper_style cvff
special_bonds amber
pair_modify mix arithmetic
neighbor 2.0 bin
neigh_modify delay 0 every 1 check yes

# system definition
read_data ../final.data
Reading data file ...
  orthogonal box = (-35.667086 -39.652884 -27.891195) to (35.667086 39.652884 27.891195)
  4 by 4 by 2 MPI processor grid
  reading atoms ...
  30020 atoms
  reading velocities ...
  30020 velocities
  scanning bonds ...
  3 = max bonds/atom
  scanning angles ...
  6 = max angles/atom
  scanning dihedrals ...
  24 = max dihedrals/atom
  orthogonal box = (-35.667086 -39.652884 -27.891195) to (35.667086 39.652884 27.891195)
  4 by 4 by 2 MPI processor grid
  reading bonds ...
  30010 bonds
  reading angles ...
  56000 angles
  reading dihedrals ...
  75910 dihedrals
Finding 1-2 1-3 1-4 neighbors ...
  special bond factors lj:    0        0        0.5     
  special bond factors coul:  0        0        0.8333333333333334
     4 = max # of 1-2 neighbors
    11 = max # of 1-3 neighbors
    22 = max # of 1-4 neighbors
    26 = max # of special neighbors
  special bonds CPU = 0.069 seconds
  read_data CPU = 0.624 seconds
# do not reset velocities

# vars
variable tLog equal 1000
variable nEvery equal 10
variable nRepeat equal 100
variable boolDump equal 0
variable tDump equal 1000

variable tPreeq equal 10000
variable tPrerun equal 10000
variable tTCrun equal 1500000

variable diffT_delay equal ${tPreeq}+${tPreeq}
variable diffT_delay equal 10000+${tPreeq}
variable diffT_delay equal 10000+10000
# heatflux of 0.05 give good results over 1 ns
variable heat_flux equal 0.02
variable heat_flux_neg equal -1*v_heat_flux

# defining region
variable hot_lo equal (ly*0)+ylo
variable hot_hi equal (ly*0.05)+ylo
variable cold_lo equal (ly*0.50)+ylo
variable cold_hi equal (ly*0.55)+ylo

print "DEBUG: ${hot_lo} ${hot_hi} ${cold_lo} ${cold_hi}"
DEBUG: -39.6528842348276 -35.6875958113448 0 3.96528842348276

# define heating and cooling block regions
region hot block INF INF ${hot_lo} ${hot_hi} INF INF units box
region hot block INF INF -39.6528842348276 ${hot_hi} INF INF units box
region hot block INF INF -39.6528842348276 -35.6875958113448 INF INF units box
region cold block INF INF ${cold_lo} ${cold_hi} INF INF units box
region cold block INF INF 0 ${cold_hi} INF INF units box
region cold block INF INF 0 3.96528842348276 INF INF units box
compute Thot all temp/region hot
compute Tcold all temp/region cold

# STEP 1 - 1st equilibration (nve)
# 1a - thermo output for md2
thermo_style custom step time temp c_Thot c_Tcold press enthalpy etotal ke pe
thermo_modify colname c_Thot Temp_hot colname c_Tcold Temp_cold
thermo_modify flush yes
thermo ${tLog}
thermo 1000

# 1b - nve equilibration
timestep 1.0
fix md2 all nve
run ${tPreeq}
run 10000

CITE-CITE-CITE-CITE-CITE-CITE-CITE-CITE-CITE-CITE-CITE-CITE-CITE

Your simulation uses code contributions which should be cited:

- Type Label Framework: https://doi.org/10.1021/acs.jpcb.3c08419

@Article{Gissinger24,
 author = {Jacob R. Gissinger, Ilia Nikiforov, Yaser Afshar, Brendon Waters, Moon-ki Choi, Daniel S. Karls, Alexander Stukowski, Wonpil Im, Hendrik Heinz, Axel Kohlmeyer, and Ellad B. Tadmor},
 title = {Type Label Framework for Bonded Force Fields in LAMMPS},
 journal = {J. Phys. Chem. B},
 year =    2024,
 volume =  128,
 number =  13,
 pages =   {3282–-3297}
}

CITE-CITE-CITE-CITE-CITE-CITE-CITE-CITE-CITE-CITE-CITE-CITE-CITE

PPPM initialization ...
  using 12-bit tables for long-range coulomb (src/kspace.cpp:342)
  G vector (1/distance) = 0.25787445
  grid = 54 60 45
  stencil order = 5
  estimated absolute RMS force accuracy = 0.00038404524
  estimated relative force accuracy = 1.1565408e-06
  using double precision FFTW3
  3d grid and FFT values/proc = 12760 6480
Generated 21 of 21 mixed pair_coeff terms from arithmetic mixing rule
Neighbor list info ...
  update: every = 1 steps, delay = 0 steps, check = yes
  max neighbors/atom: 2000, page size: 100000
  master list distance cutoff = 14
  ghost atom cutoff = 14
  binsize = 7, bins = 11 12 8
  1 neighbor lists, perpetual/occasional/extra = 1 0 0
  (1) pair lj/charmm/coul/long, perpetual
      attributes: half, newton on
      pair build: half/bin/newton
      stencil: half/bin/3d
      bin: standard
Per MPI rank memory allocation (min/avg/max) = 20.61 | 20.98 | 21.22 Mbytes
   Step          Time           Temp         Temp_hot      Temp_cold        Press         Enthalpy        TotEng         KinEng         PotEng    
         0   0              297.69673      305.34862      299.37518      213.30029      130639.82      129658.15      26638.183      103019.96    
      1000   1000           299.11432      297.952        306.50598      126.92638      130241.92      129657.77      26765.029      102892.74    
      2000   2000           297.98715      317.69121      299.10428     -255.02617      128480.62      129654.33      26664.17       102990.16    
      3000   3000           298.11551      302.72856      292.32421     -298.19502      128287.58      129659.96      26675.655      102984.3     
      4000   4000           299.95835      303.32035      304.88801      311.10856      131087.29      129655.47      26840.554      102814.92    
      5000   5000           298.69842      306.07348      308.30069      392.25071      131463.1       129657.84      26727.814      102930.03    
      6000   6000           296.34515      297.0234       303.37788     -179.41996      128831.71      129657.46      26517.242      103140.22    
      7000   7000           296.98053      310.10691      295.32531      223.508        130686.36      129657.71      26574.096      103083.61    
      8000   8000           299.75918      304.74811      300.7704      -23.87276       129539.12      129648.99      26822.733      102826.26    
      9000   9000           299.56213      305.47224      300.00281      145.93954      130328.32      129656.66      26805.1        102851.56    
     10000   10000          299.2864       316.52774      308.91947     -387.29479      127875.8       129658.25      26780.428      102877.82    
Loop time of 143.272 on 32 procs for 10000 steps with 30020 atoms

Performance: 6.031 ns/day, 3.980 hours/ns, 69.798 timesteps/s, 2.095 Matom-step/s
99.5% CPU use with 32 MPI tasks x 1 OpenMP threads

MPI task timing breakdown:
Section |  min time  |  avg time  |  max time  |%varavg| %total
---------------------------------------------------------------
Pair    | 64.544     | 71.901     | 78.713     |  48.9 | 50.18
Bond    | 1.5011     | 1.6912     | 1.8753     |   6.7 |  1.18
Kspace  | 49.437     | 56.247     | 63.968     |  56.1 | 39.26
Neigh   | 4.9802     | 5.1155     | 5.2127     |   3.8 |  3.57
Comm    | 6.4787     | 7.4881     | 9.0081     |  21.0 |  5.23
Output  | 0.00098843 | 0.0013256  | 0.0029567  |   0.9 |  0.00
Modify  | 0.049373   | 0.053854   | 0.064313   |   1.3 |  0.04
Other   |            | 0.7741     |            |       |  0.54

Nlocal:        938.125 ave        1003 max         881 min
Histogram: 3 1 2 6 5 7 3 2 2 1
Nghost:        10710.8 ave       10865 max       10590 min
Histogram: 4 5 4 3 2 3 5 2 2 2
Neighs:         512796 ave      569864 max      476485 min
Histogram: 4 7 4 3 3 2 4 1 2 2

Total # of neighbors = 16409467
Ave neighs/atom = 546.61782
Ave special neighs/atom = 10.787475
Neighbor list builds = 390
Dangerous builds = 0
unfix md2

# STEP 2 - MD for thermal conductivity
# 2a - impose nve
fix md3 all nve

# 2b - impose heat flux
fix hot all ehex 1 ${heat_flux} region hot
fix hot all ehex 1 0.02 region hot
fix cold all ehex 1 ${heat_flux_neg} region cold
fix cold all ehex 1 -0.02 region cold

# 2c - calculate thermal profile
compute ke all ke/atom
variable temp atom c_ke/(1.5*0.001987204)

compute layers all chunk/atom bin/1d y lower 0.05 units reduced
fix bins all ave/chunk ${nEvery} ${nRepeat} ${tLog} layers v_temp file Tprofile_y_ehex.dat
fix bins all ave/chunk 10 ${nRepeat} ${tLog} layers v_temp file Tprofile_y_ehex.dat
fix bins all ave/chunk 10 100 ${tLog} layers v_temp file Tprofile_y_ehex.dat
fix bins all ave/chunk 10 100 1000 layers v_temp file Tprofile_y_ehex.dat

variable tdiff equal c_Thot-c_Tcold
fix ave all ave/time ${nEvery} ${nRepeat} ${tLog} v_tdiff ave running start ${diffT_delay}
fix ave all ave/time 10 ${nRepeat} ${tLog} v_tdiff ave running start ${diffT_delay}
fix ave all ave/time 10 100 ${tLog} v_tdiff ave running start ${diffT_delay}
fix ave all ave/time 10 100 1000 v_tdiff ave running start ${diffT_delay}
fix ave all ave/time 10 100 1000 v_tdiff ave running start 20000

# pre define kappa
variable kappa_inst equal 0
variable kappa equal 0

# 2d - thermo out
# dump dump_tc all custom 1000 dump.tc_x_ehex.lammpstrj id type mol x y z ix iy iz vx vy vz
thermo_style custom step time v_kappa v_kappa_inst c_Thot c_Tcold v_tdiff f_ave temp press enthalpy etotal ke pe
WARNING: New thermo_style command, previous thermo_modify settings will be lost (src/output.cpp:904)
thermo_modify colname v_kappa kappa colname v_kappa_inst kappa_inst colname c_Thot Temp_hot colname c_Tcold Temp_cold colname v_tdiff dTemp_step colname f_ave dTemp
thermo_modify flush yes
thermo ${tLog}
thermo 1000

# 2e - prerun
run ${tPrerun}
run 10000
PPPM initialization ...
  using 12-bit tables for long-range coulomb (src/kspace.cpp:342)
  G vector (1/distance) = 0.25787445
  grid = 54 60 45
  stencil order = 5
  estimated absolute RMS force accuracy = 0.00038404524
  estimated relative force accuracy = 1.1565408e-06
  using double precision FFTW3
  3d grid and FFT values/proc = 12760 6480
Generated 21 of 21 mixed pair_coeff terms from arithmetic mixing rule
Per MPI rank memory allocation (min/avg/max) = 21.34 | 21.59 | 21.72 Mbytes
   Step          Time          kappa        kappa_inst      Temp_hot      Temp_cold      dTemp_step       dTemp           Temp          Press         Enthalpy        TotEng         KinEng         PotEng    
     10000   10000          0              0              316.84807      308.91947      7.928601       0              299.2864      -387.29479      127875.8       129658.25      26780.428      102877.82    
     11000   11000          0              0              304.19566      296.38273      7.8129328      0              298.99092     -184.36903      128803.82      129652.34      26753.988      102898.35    
     12000   12000          0              0              305.76988      296.94521      8.8246719      0              299.45404      459.85054      131770.43      129654.05      26795.428      102858.63    
     13000   13000          0              0              303.80861      291.77503      12.033572      0              296.81133      22.466468      129766.27      129662.87      26558.956      103103.91    
     14000   14000          0              0              303.3727       296.92787      6.4448311      0              298.76309      223.48711      130687.73      129659.17      26733.601      102925.57    
     15000   15000          0              0              308.88922      294.07601      14.813211      0              298.3809       175.01952      130462.53      129657.04      26699.402      102957.64    
     16000   16000          0              0              295.7817       298.96265     -3.1809428      0              300.27741     -120.62654      129095.18      129650.34      26869.104      102781.24    
     17000   17000          0              0              307.29063      290.97333      16.317301      0              299.52388     -396.26955      127829.57      129653.32      26801.678      102851.64    
     18000   18000          0              0              303.04473      288.47266      14.57207       0              298.60687     -43.262157      129457.74      129656.84      26719.622      102937.22    
     19000   19000          0              0              301.93005      277.85108      24.07897       0              299.72897      543.83266      132150.8       129647.91      26820.029      102827.88    
     20000   20000          0              0              297.12328      294.5941       2.5291732      21.180365      297.8902      -145.66079      128993.37      129663.75      26655.494      103008.25    
Loop time of 142.948 on 32 procs for 10000 steps with 30020 atoms

Performance: 6.044 ns/day, 3.971 hours/ns, 69.955 timesteps/s, 2.100 Matom-step/s
99.5% CPU use with 32 MPI tasks x 1 OpenMP threads

MPI task timing breakdown:
Section |  min time  |  avg time  |  max time  |%varavg| %total
---------------------------------------------------------------
Pair    | 65.242     | 71.006     | 77.714     |  44.8 | 49.67
Bond    | 1.4937     | 1.6952     | 1.894      |   7.3 |  1.19
Kspace  | 49.635     | 56.051     | 62.187     |  50.9 | 39.21
Neigh   | 5.004      | 5.1249     | 5.2339     |   3.5 |  3.59
Comm    | 6.813      | 7.6646     | 8.9755     |  19.3 |  5.36
Output  | 0.0024395  | 0.0046014  | 0.004867   |   0.6 |  0.00
Modify  | 0.84222    | 1.1467     | 1.458      |  12.5 |  0.80
Other   |            | 0.2544     |            |       |  0.18

Nlocal:        938.125 ave         988 max         852 min
Histogram: 1 0 1 4 1 6 6 6 3 4
Nghost:        10713.6 ave       10937 max       10556 min
Histogram: 3 3 7 4 4 4 3 1 1 2
Neighs:         512857 ave      567427 max      459723 min
Histogram: 1 1 7 6 4 1 3 5 3 1

Total # of neighbors = 16411433
Ave neighs/atom = 546.68331
Ave special neighs/atom = 10.787475
Neighbor list builds = 391
Dangerous builds = 0

# 2f - calc kappa
variable kappa_inst equal (${heat_flux}/(lx*lz)/2.0)*(ly/2.0)/v_tdiff*69478.5785
variable kappa_inst equal (0.02/(lx*lz)/2.0)*(ly/2.0)/v_tdiff*69478.5785
variable kappa equal (${heat_flux}/(lx*lz)/2.0)*(ly/2.0)/f_ave*69478.5785
variable kappa equal (0.02/(lx*lz)/2.0)*(ly/2.0)/f_ave*69478.5785

# 2g - md run for kappa calculation
# optional traj dump
if "${boolDump} == 1" then     "dump tc_dump all atom ${tDump} dump.tc_y.lammpstrj"
run ${tTCrun}
run 1500000
PPPM initialization ...
  using 12-bit tables for long-range coulomb (src/kspace.cpp:342)
  G vector (1/distance) = 0.25787445
  grid = 54 60 45
  stencil order = 5
  estimated absolute RMS force accuracy = 0.00038404524
  estimated relative force accuracy = 1.1565408e-06
  using double precision FFTW3
  3d grid and FFT values/proc = 12760 6480
Generated 21 of 21 mixed pair_coeff terms from arithmetic mixing rule
Per MPI rank memory allocation (min/avg/max) = 21.75 | 21.85 | 21.97 Mbytes
   Step          Time          kappa        kappa_inst      Temp_hot      Temp_cold      dTemp_step       dTemp           Temp          Press         Enthalpy        TotEng         KinEng         PotEng    
     20000   20000          0.32688691     1.7675165      298.51123      294.5941       3.9171255      21.180365      297.8902      -145.66078      128993.37      129663.75      26655.494      103008.25    
     21000   21000          0.34603464     0.35635626     307.70142      288.27259      19.428827      20.008355      298.02034     -185.5809       128802.87      129656.97      26667.139      102989.83    
     22000   22000          0.31024543     0.31319656     305.96195      283.85576      22.106195      22.316474      300.70693      262.36415      130863.49      129656.01      26907.538      102748.47    
     23000   23000          0.31022411     0.76401173     300.24906      291.18691      9.0621437      22.318008      298.20235      131.94511      130270.44      129663.19      26683.426      102979.76    
     24000   24000          0.31863668     0.33229982     310.53366      289.69831      20.835353      21.728773      298.79998      13.871584      129718.82      129654.97      26736.902      102918.07    
     25000   25000          0.31628049     0.38242902     314.01352      295.90929      18.104233      21.890645      299.26741      898.46954      133790.32      129655.29      26778.728      102876.56    
     26000   26000          0.31333246     0.54553875     300.67276      287.98148      12.691278      22.096606      298.12922      23.723768      129766.14      129656.96      26676.882      102980.08    
     27000   27000          0.31277369     0.55826407     311.50257      299.10059      12.401988      22.136082      301.04724      781.76778      133242.67      129644.73      26937.989      102706.74    
     28000   28000          0.32088451     0.23552786     315.66089      286.26486      29.39603       21.576561      299.25499     -286.98196      128331.35      129652.13      26777.617      102874.51    
     29000   29000          0.31923318     0.2964108      318.23971      294.88164      23.35807       21.688172      297.04317      253.30208      130828.2       129662.43      26579.701      103082.73    
     30000   30000          0.31402796     0.19893271     316.02797      281.22432      34.803649      22.047667      298.83776     -244.46195      128529.31      129654.4       26740.283      102914.11    
     31000   31000          0.31123975     0.31091127     311.53756      289.26888      22.268681      22.245179      299.63553     -101.71011      129180.98      129649.08      26811.668      102837.41    
     32000   32000          0.31077814     0.386334       305.7968       287.87556      17.921239      22.278221      297.77102     -936.26664      125347.49      129656.47      26644.83       103011.64    
     33000   33000          0.31694699     0.31330619     304.30883      282.21037      22.098459      21.844612      296.81538     -108.27401      129163.3       129661.61      26559.318      103102.29    
     34000   34000          0.319029       0.36171925     307.69025      288.54949      19.140767      21.702053      298.41176      193.8152       130549.12      129657.12      26702.164      102954.96    
     35000   35000          0.32378463     0.64921913     304.85543      294.19095      10.66448       21.383301      298.76415     -333.48274      128119.34      129654.13      26733.696      102920.43    
     36000   36000          0.32632165     4.1164504      300.64929      298.96736      1.6819306      21.217054      300.37911      307.03         131059.92      129646.87      26878.204      102768.67    
     37000   37000          0.3292305      0.3818192      306.99408      288.86093      18.133148      21.029595      299.51193      245.39506      130784.52      129655.14      26800.608      102854.53    
     38000   38000          0.33021092     0.28287031     318.69608      294.2199       24.476178      20.967157      298.28024     -29.152962      129525.16      129659.33      26690.395      102968.94    
     39000   39000          0.33229092     0.41691474     308.03053      291.42382      16.606714      20.835911      299.56523     -50.125816      129424.27      129654.96      26805.377      102849.59    
     40000   40000          0.33050411     0.21568184     317.37586      285.27495      32.100913      20.948556      295.47         673.89294      132760.97      129659.51      26438.932      103220.58    
     41000   41000          0.32928076     0.21921703     317.42346      285.84022      31.58324       21.026385      299.98901      586.62075      132354.52      129654.71      26843.297      102811.42    
     42000   42000          0.32671227     0.26401211     318.21256      291.98807      26.224494      21.191687      298.88498      137.4398       130292.11      129659.57      26744.508      102915.06    
     43000   43000          0.3265044      0.30614838     310.82743      288.2123       22.615126      21.205179      298.78529     -733.25253      126279.49      129654.14      26735.588      102918.55    
     44000   44000          0.32312152     0.38807567     312.42314      294.58233      17.840809      21.427183      298.81463      397.37711      131485.61      129656.76      26738.213      102918.55    
     45000   45000          0.31993185     0.29481904     305.98694      282.50276      23.484182      21.640809      299.17471      389.5601       131443         129650.12      26770.434      102879.69    
     46000   46000          0.31557826     0.16529923     313.99696      272.11181      41.885155      21.939357      299.26761     -339.88288      128090.33      129654.57      26778.747      102875.82    
     47000   47000          0.30882626     0.21882866     314.23824      282.59895      31.639292      22.419026      299.56114      321.5893       131131.51      129651.46      26805.011      102846.45    
     48000   48000          0.30216008     0.3116206      301.15254      278.93455      22.217992      22.913629      297.24215      97.918516      130111.02      129660.37      26597.506      103062.86    
     49000   49000          0.29831213     0.13486574     323.76714      272.43028      51.336865      23.209194      298.78441     -68.643478      129340.65      129656.57      26735.509      102921.06    
     50000   50000          0.29530753     0.26813827     307.44556      281.62461      25.820947      23.445335      299.30339     -68.608052      129339.07      129654.83      26781.948      102872.88    
     51000   51000          0.29227207     0.17760918     318.52177      279.53964      38.982129      23.688832      297.68004     -13.766947      129593.86      129657.22      26636.689      103020.53    
     52000   52000          0.28860117     0.17195172     321.8655       281.6008       40.264699      23.990145      297.81321     -113.6249       129129.48      129652.42      26648.605      103003.81    
     53000   53000          0.28495101     0.22264678     313.33592      282.2392       31.096718      24.297454      300.02751      686.9693       132818.8       129657.16      26846.743      102810.42    
     54000   54000          0.28270067     0.26500452     314.21918      288.09289      26.126287      24.490866      298.12592      164.71377      130412.71      129654.65      26676.586      102978.06    
     55000   55000          0.281385       0.18659828     316.93371      279.82949      37.104223      24.605377      298.37269      438.9556       131672.89      129652.68      26698.668      102954.02    
     56000   56000          0.27997437     0.80729855     304.8155       296.23926      8.5762375      24.72935       298.52837      150.42638      130352.47      129660.17      26712.598      102947.57    
     57000   57000          0.28125738     1.0239931      309.40623      302.64487      6.7613582      24.616542      299.69266      519.32665      132039.79      129649.69      26816.78       102832.91    
     58000   58000          0.28198736     0.28035165     306.19985      281.50378      24.69607       24.552817      297.98183      294.84937      131014.61      129657.62      26663.693      102993.93    
     59000   59000          0.28229702     0.32087978     311.08001      289.50313      21.576879      24.525885      297.53525     -144.12934      128997.99      129661.32      26623.733      103037.59    
     60000   60000          0.28228236     0.28060116     309.6917       285.01759      24.674111      24.527158      298.07321     -523.23076      127251.84      129659.91      26671.87       102988.04    
     61000   61000          0.28172026     0.32023383     316.03115      294.41074      21.620402      24.576096      298.0945       0.33463298     129656.25      129654.71      26673.775      102980.94    
     62000   62000          0.28201847     0.33448709     309.86968      289.17058      20.699107      24.550109      299.75939      251.24141      130805.87      129649.58      26822.751      102826.82    
     63000   63000          0.28241516     0.39768779     307.75329      290.3437       17.409597      24.515624      299.44927      397.97927      131487.6       129655.97      26795.001      102860.97    
     64000   64000          0.28169694     0.4496797      301.686        286.2893       15.396701      24.57813       298.27857      572.62108      132289.18      129653.8       26690.246      102963.56    
     65000   65000          0.2823225      0.2703183      309.45354      283.84083      25.612709      24.523671      298.82339     -29.881308      129518.13      129655.66      26738.996      102916.66    
     66000   66000          0.28267765     1.3938137      298.02125      293.05389      4.9673668      24.49286       298.99443     -136.61097      129025.04      129653.76      26754.301      102899.46    
     67000   67000          0.28356002     0.34270493     314.51425      294.3115       20.202756      24.416644      297.45895     -140.97602      129011.13      129659.94      26616.906      103043.03    
     68000   68000          0.28528506     0.493929       307.03107      293.0137       14.017367      24.269003      298.62956     -772.54518      126102.47      129657.96      26721.652      102936.31    
     69000   69000          0.285302       0.19136429     315.73497      279.55484      36.180126      24.267563      298.63569      10.494439      129707.58      129659.28      26722.201      102937.08    
     70000   70000          0.28637275     0.24323444     317.92956      289.4649       28.464654      24.176826      300.19295     -509.63618      127314.69      129660.19      26861.546      102798.64    
     71000   71000          0.28785652     0.28690384     302.05555      277.92348      24.132072      24.052205      299.49987     -414.2622       127750.43      129656.99      26799.529      102857.46    
     72000   72000          0.28840589     0.2739962      308.74372      283.47482      25.268905      24.006389      298.69378      202.76984      130586.38      129653.17      26727.4        102925.77    
     73000   73000          0.28697459     0.2354344      307.91094      278.50324      29.407699      24.126122      298.38412      967.42528      134107.02      129654.64      26699.691      102954.95    
     74000   74000          0.28563578     0.23563663     311.74547      282.36301      29.382461      24.239205      297.93157     -480.39151      127448.82      129659.73      26659.196      103000.53    
     75000   75000          0.28595538     1.1072124      298.17014      291.91698      6.2531673      24.212113      298.30015     -174.35531      128854.08      129656.51      26692.177      102964.34    
     76000   76000          0.28557804     0.27857455     310.63546      285.78185      24.853613      24.244105      296.48485     -395.22628      127837.58      129656.53      26529.742      103126.79    
     77000   77000          0.28521513     0.32102335     308.37754      286.81031      21.567229      24.274954      299.99941      174.75138      130456.95      129652.69      26844.228      102808.46    
     78000   78000          0.28490135     0.23374113     308.7508       279.13007      29.620735      24.30169       298.52849     -316.50398      128194.75      129651.4       26712.609      102938.79    
     79000   79000          0.28484374     0.22979453     312.45068      282.32122      30.129455      24.306605      297.39516      234.70325      130735.66      129655.48      26611.197      103044.28    
     80000   80000          0.28515887     0.60542062     308.80512      297.36913      11.43599       24.279743      300.70452      147.81306      130326.82      129646.53      26907.322      102739.21    
     81000   81000          0.28384309     0.26166064     309.60495      283.14479      26.460167      24.392294      298.27003      129.24455      130253.28      129658.46      26689.481      102968.98    
     82000   82000          0.28305473     0.35374768     304.30142      284.72932      19.572097      24.460231      299.10512     -384.69435      127888.94      129659.42      26764.207      102895.21    
     83000   83000          0.28302964     0.21823206     318.73744      287.01165      31.725788      24.462399      299.98318     -5.5567139      129622.45      129648.02      26842.776      102805.24    
     84000   84000          0.28241773     0.22644669     313.18413      282.60923      30.574896      24.515402      300.12937     -419.8252       127717.51      129649.67      26855.857      102793.81    
     85000   85000          0.28183349     0.188398       315.55887      278.8091       36.749775      24.566222      299.88972      55.392904      129912.6       129657.67      26834.413      102823.25    
     86000   86000          0.28029407     0.20068582     316.36785      281.86823      34.499618      24.701143      299.26444      170.98228      130444.16      129657.25      26778.462      102878.79    
     87000   87000          0.2779592      0.15117383     316.602        270.80318      45.798826      24.908634      298.14347      0.67104178     129658.75      129655.66      26678.157      102977.5     
     88000   88000          0.276899       0.2439863      308.76417      280.38723      28.376938      25.004005      296.85673      201.74303      130594.27      129665.78      26563.019      103102.76    
     89000   89000          0.27588966     0.16778758     315.95073      274.68674      41.263985      25.095482      297.86342     -482.68418      127436.07      129657.53      26653.098      103004.43    
     90000   90000          0.27436695     0.15532142     323.42064      278.84479      44.575849      25.23476       296.87508     -265.24369      128435.92      129656.65      26564.66       103091.99    
     91000   91000          0.27275283     0.22845086     314.13408      283.82741      30.306667      25.384096      297.62172      212.05163      130638.86      129662.93      26631.47       103031.46    
     92000   92000          0.27075923     0.32812366     315.61417      294.51364      21.100533      25.571         297.68628      317.07508      131119.1       129659.82      26637.247      103022.57    
     93000   93000          0.26934215     0.21831145     314.90732      283.19307      31.71425       25.705535      298.34254      210.5909       130627.87      129658.66      26695.97       102962.69    
     94000   94000          0.26896546     0.30984251     310.20265      287.85716      22.345495      25.741536      299.18926      934.10051      133956.14      129657.12      26771.735      102885.39    
     95000   95000          0.26860766     0.17980465     326.0247       287.51855      38.506145      25.775825      300.63228      732.78652      133026.42      129653.91      26900.858      102753.06    
     96000   96000          0.26814673     0.13844949     326.59982      276.5918       50.008015      25.820133      298.77089      401.93392      131508.93      129659.11      26734.299      102924.81    
     97000   97000          0.26764053     0.23354142     322.27449      292.62842      29.646065      25.868967      297.60093     -134.62461      129039.07      129658.65      26629.61       103029.04    
     98000   98000          0.2672904      0.24703612     312.25748      284.23087      28.026607      25.902853      299.34505     -46.091088      129442.93      129655.05      26785.676      102869.38    
     99000   99000          0.26696006     0.33167417     312.33746      291.4628       20.874655      25.934907      299.07866      319.82478      131125.48      129653.55      26761.839      102891.71    
    100000   100000         0.26612391     0.25696836     314.69607      287.75273      26.943333      26.016392      298.91105     -58.206201      129385.53      129653.41      26746.84       102906.57    
    101000   101000         0.26501194     0.21784818     321.99347      290.21178      31.781693      26.125555      300.27134      331.05096      131175.05      129651.45      26868.561      102782.89    
    102000   102000         0.2641504      0.29213822     313.31848      289.6188       23.699686      26.210765      298.41161     -274.25194      128396.99      129659.18      26702.151      102957.03    
    103000   103000         0.26336854     0.21311943     315.24929      282.76242      32.486874      26.288577      299.03453     -202.16721      128725.24      129655.68      26757.89       102897.79    
    104000   104000         0.26252551     0.19940478     320.32989      285.60864      34.721254      26.372995      298.43208     -383.57545      127893.69      129659.02      26703.982      102955.03    
    105000   105000         0.26225051     0.19501134     314.96006      279.45656      35.503495      26.400651      300.47807      278.24602      130934.03      129653.46      26887.059      102766.4     
    106000   106000         0.26132001     0.18465448     315.62243      278.12763      37.494807      26.494657      299.6487       463.72342      131788.73      129654.54      26812.847      102841.69    
    107000   107000         0.26062424     0.16471065     316.62328      274.58845      42.034828      26.565388      297.25072     -179.29936      128831.13      129656.32      26598.273      103058.05    
    108000   108000         0.25974815     0.21008172     311.92838      278.97175      32.956623      26.654989      299.42301      57.845985      129921.32      129655.1       26792.651      102862.45    
    109000   109000         0.25911051     0.25858189     308.58623      281.81102      26.775209      26.720583      298.39802     -344.22781      128069.83      129654.08      26700.935      102953.14    
    110000   110000         0.25884149     0.20070503     318.86719      284.37087      34.496316      26.748356      298.09152     -125.02502      129084.72      129660.12      26673.509      102986.61    
    111000   111000         0.2582798      0.1821289      318.5017       280.48695      38.014747      26.806525      298.1949       576.81465      132301.66      129646.98      26682.759      102964.22    
    112000   112000         0.25780226     0.15410085     324.84927      279.92036      44.928915      26.856181      298.90683     -5.0703592      129632.5       129655.83      26746.463      102909.37    
    113000   113000         0.25739756     0.35865142     311.42457      292.12008      19.304494      26.898406      298.64002     -200.65293      128732.14      129655.61      26722.589      102933.02    
    114000   114000         0.2574339      0.40328543     306.27609      289.10814      17.16795       26.894609      298.01216     -300.24687      128272.87      129654.69      26666.408      102988.29    
    115000   115000         0.25721029     0.17598681     322.21452      282.87302      39.341494      26.91799       298.82997      300.61651      131040.28      129656.75      26739.585      102917.17    
    116000   116000         0.25672439     0.30806605     306.22053      283.74618      22.474349      26.968937      298.194        651.00741      132646.55      129650.41      26682.678      102967.73    
    117000   117000         0.25603999     0.3526634      313.40995      293.77768      19.632273      27.041026      299.45519      216.39115      130645.97      129650.07      26795.531      102854.54    
    118000   118000         0.25556857     0.1706871      316.19552      275.63251      40.563019      27.090906      299.00033     -382.13817      127900.67      129659.39      26754.83       102904.56    
    119000   119000         0.2547742      0.2148498      315.9906       283.76537      32.225229      27.175374      300.65151     -676.61652      126532.62      129646.62      26902.579      102744.04    
    120000   120000         0.25451386     0.21985055     316.09311      284.60088      31.49223       27.203171      299.2668      -132.22003      129042.87      129651.39      26778.673      102872.72    
    121000   121000         0.25380553     0.18169218     325.77567      287.66955      38.106121      27.279091      299.01673      214.38669      130646.36      129659.68      26756.297      102903.39    
    122000   122000         0.25268802     0.2129603      314.34364      281.8325       32.511149      27.399732      299.20175      162.53081      130398.54      129650.53      26772.853      102877.68    
    123000   123000         0.25186477     0.24093981     307.02491      278.28917      28.735741      27.489292      299.24696     -247.50166      128510.06      129649.14      26776.899      102872.24    
    124000   124000         0.25116727     0.20381952     317.09397      283.12478      33.96919       27.565631      299.31121      284.62748      130965.71      129655.76      26782.648      102873.12    
    125000   125000         0.25041474     0.22375137     314.2733       283.3301       30.943203      27.648468      298.54686     -173.5587       128853.48      129652.25      26714.253      102938       
    126000   126000         0.25004202     0.22292012     312.483        281.42441      31.058587      27.689682      296.67123     -25.100224      129546.48      129662         26546.419      103115.58    
    127000   127000         0.24903699     0.16821959     317.20098      276.04297      41.158014      27.801429      296.47414     -825.10627      125867.04      129664.44      26528.783      103135.65    
    128000   128000         0.24801925     0.1460733      326.22592      278.8279       47.398012      27.915511      300.96625      91.470276      130073.2       129652.23      26930.742      102721.49    
    129000   129000         0.24680516     0.17174959     322.569        282.25692      40.312084      28.052834      298.8316       196.68616      130562.33      129657.12      26739.732      102917.39    
    130000   130000         0.24576965     0.22004991     314.97839      283.51469      31.463698      28.17103       299.03589      393.98578      131465.63      129652.39      26758.011      102894.38    
    131000   131000         0.24484025     0.18254576     322.67262      284.74469      37.927936      28.277965      298.98432     -301.42056      128270.71      129657.94      26753.397      102904.54    
    132000   132000         0.24433996     0.18105985     320.35185      282.11265      38.239201      28.335865      298.49154     -611.04031      126846.38      129658.57      26709.303      102949.27    
    133000   133000         0.24389815     0.20854874     311.70185      278.50298      33.198877      28.387194      301.53003      290.68088      130987.79      129649.98      26981.19       102668.79    
    134000   134000         0.24316703     0.18453142     322.72086      285.20105      37.519812      28.472544      298.04016      307.92183      131078.05      129660.9       26668.912      102991.98    
    135000   135000         0.2428597      0.36001494     301.52776      282.29638      19.23138       28.508576      297.77614      599.18397      132424.23      129666.6       26645.288      103021.31    
    136000   136000         0.24223716     0.26826591     309.84067      284.03201      25.808661      28.581841      299.18048     -275.69537      128389.62      129658.45      26770.95       102887.5     
    137000   137000         0.24127786     0.16611487     320.73053      279.05103      41.679497      28.695481      296.75713     -114.633        129132.04      129659.62      26554.106      103105.51    
    138000   138000         0.24050612     0.23620771     314.48858      285.17715      29.311423      28.787559      299.69949      508.35913      131998.74      129659.11      26817.392      102841.72    
    139000   139000         0.24000449     0.21403093     311.22308      278.87456      32.348521      28.847727      298.11318      79.579746      130025         129658.75      26675.447      102983.31    
    140000   140000         0.23975581     0.21222478     312.10146      279.47763      32.623824      28.877648      297.72541     -145.56105      128989.85      129659.76      26640.748      103019.01    
    141000   141000         0.23946042     0.28847583     311.90988      287.90931      24.000569      28.913271      297.53946      456.1351       131755.48      129656.21      26624.11       103032.1     
    142000   142000         0.2390667      0.17055442     317.271        276.67642      40.594575      28.960889      298.09441      172.74469      130452.54      129657.52      26673.767      102983.75    
    143000   143000         0.2386523      0.1975894      315.72882      280.68856      35.04026       29.011177      298.35985     -55.315087      129404.13      129658.7       26697.519      102961.18    
    144000   144000         0.23818793     0.14986258     325.58416      279.3846       46.199552      29.067737      298.08945     -218.61933      128650.02      129656.17      26673.323      102982.85    
    145000   145000         0.23771415     0.22872335     314.20632      283.93576      30.270561      29.125671      298.11834     -10.076864      129614.1       129660.48      26675.909      102984.57    
    146000   146000         0.23729451     0.1427894      329.81509      281.32701      48.488082      29.177178      298.80382      232.91794      130724.76      129652.8       26737.245      102915.55    
    147000   147000         0.2370073      0.15132925     323.98496      278.23317      45.751789      29.212535      297.99782      428.48039      131635.12      129663.12      26665.124      102998       
    148000   148000         0.23662971     0.14580958     323.59107      276.10734      47.483739      29.25915       300.26208      588.82938      132363.78      129653.81      26867.733      102786.07    
    149000   149000         0.23616728     0.16502827     325.86749      283.91356      41.953929      29.31644       299.20752      103.02522      130130.99      129656.84      26773.369      102883.47    
    150000   150000         0.23598947     0.28203049     315.48398      290.93492      24.549063      29.33853       298.85377     -208.26312      128697.79      129656.28      26741.715      102914.57    
    151000   151000         0.23607032     0.4239604      306.68075      290.35002      16.330733      29.328482      299.30691     -440.82925      127622.54      129651.37      26782.262      102869.11    
    152000   152000         0.23596061     0.16297687     317.85929      275.37729      42.482004      29.342119      297.94522      210.32268      130625.09      129657.12      26660.417      102996.7     
    153000   153000         0.23555112     0.21860638     308.51768      276.84622      31.671464      29.393127      297.08915     -131.95039      129050.34      129657.62      26583.816      103073.8     
    154000   154000         0.23509812     0.18587305     326.38825      289.13926      37.248993      29.449763      296.93496     -454.48309      127564.85      129656.52      26570.019      103086.5     
    155000   155000         0.23461381     0.14867229     323.11918      276.54975      46.569432      29.510556      299.0935      -190.75008      128777.21      129655.1       26763.167      102891.93    
    156000   156000         0.23382515     0.13380731     327.08862      275.34567      51.742944      29.610091      300.14595     -146.68214      128979.49      129654.56      26857.341      102797.22    
    157000   157000         0.2327783      0.16263718     317.02911      274.45838      42.570734      29.743254      297.67468      11.560646      129709.83      129656.63      26636.21       103020.42    
    158000   158000         0.23175944     0.13855901     324.03368      274.06519      49.968486      29.874011      298.62531     -80.584806      129288.03      129658.91      26721.273      102937.63    
    159000   159000         0.23092657     0.12877985     326.49329      272.73034      53.762946      29.981756      298.50105     -241.00827      128542.6       129651.79      26710.153      102941.64    
    160000   160000         0.23020797     0.18305926     322.24485      284.42331      37.821546      30.075344      297.62897      423.52588      131608.22      129659.02      26632.119      103026.9     
    161000   161000         0.22959661     0.18774868     317.11063      280.23376      36.876873      30.155428      297.71399      3.1466821      129676.36      129661.88      26639.726      103022.15    
    162000   162000         0.2292045      0.18770582     321.55397      284.66867      36.885293      30.207016      300.01433     -311.26605      128216.92      129649.47      26845.563      102803.9     
    163000   163000         0.22881132     0.196983       315.17043      280.0223       35.148129      30.258923      297.14024     -41.518123      129466.49      129657.57      26588.387      103069.19    
    164000   164000         0.22850024     0.18336317     315.54183      277.78297      37.75886       30.300117      298.83486     -164.97167      128895.95      129655.2       26740.023      102915.18    
    165000   165000         0.22804705     0.206874       312.17338      278.70574      33.467638      30.360331      296.98302      21.11789       129759.25      129662.06      26574.319      103087.74    
    166000   166000         0.2279382      0.1836416      311.14172      273.44011      37.701611      30.37483       297.90067     -204.80009      128710.59      129653.14      26656.431      102996.71    
    167000   167000         0.22737993     0.169634       316.38011      275.56527      40.814838      30.449407      300.57573     -560.15516      127077.47      129655.47      26895.798      102759.67    
    168000   168000         0.22681438     0.24201551     318.02937      289.42135      28.608018      30.525331      299.11102     -417.04837      127739.35      129658.74      26764.734      102894       
    169000   169000         0.22653845     0.22080371     314.83116      283.47488      31.356285      30.562512      299.1782      -139.69691      129012.68      129655.61      26770.746      102884.86    
    170000   170000         0.22630827     0.15527649     323.44347      278.85473      44.588746      30.593598      299.44289      647.02464      132627.58      129649.77      26794.43       102855.34    
    171000   171000         0.22618919     0.22588489     310.62468      279.97374      30.650939      30.609703      299.46621     -410.31608      127769         129657.4       26796.517      102860.89    
    172000   172000         0.22593787     0.2082732      310.14438      276.90159      33.242798      30.643752      298.20227     -145.79181      128984.61      129655.59      26683.418      102972.17    
    173000   173000         0.22557658     0.31933388     305.13782      283.45648      21.681333      30.692832      299.24483      258.30176      130843.85      129655.07      26776.707      102878.36    
    174000   174000         0.22506801     0.15465982     315.10084      270.33431      44.766534      30.762186      298.21677      356.72437      131296         129654.24      26684.716      102969.53    
    175000   175000         0.22500455     0.26619056     303.8972       277.88733      26.009878      30.770863      298.11056      741.45629      133064.17      129651.76      26675.212      102976.55    
    176000   176000         0.2250543      0.302538       304.85015      281.96514      22.885007      30.764061      297.96998     -516.39141      127282.3       129658.89      26662.633      102996.26    
    177000   177000         0.2249826      0.22544254     313.86139      283.15031      30.711081      30.773865      300.00237      9.2972926      129695.68      129652.89      26844.493      102808.4     
    178000   178000         0.22468911     0.16658265     322.32766      280.76521      41.562456      30.814061      299.33164      68.308325      129967.73      129653.36      26784.475      102868.88    
    179000   179000         0.22433706     0.25158264     309.18118      281.66106      27.520118      30.862418      298.02055      441.18444      131685.21      129654.75      26667.158      102987.59    
    180000   180000         0.22405296     0.1705935      318.13684      277.55156      40.585275      30.901552      298.57774     -127.59662      129070.39      129657.63      26717.016      102940.62    
    181000   181000         0.22412959     0.33268735     309.8087       288.99762      20.811083      30.890986      298.57995      10.414996      129703.21      129655.27      26717.214      102938.06    
    182000   182000         0.22445675     0.34297093     310.28923      290.10215      20.187087      30.84596       298.12402      97.328814      130106.41      129658.47      26676.416      102982.06    
    183000   183000         0.22428664     0.24289753     309.44759      280.94346      28.504135      30.869356      300.09478      404.73048      131519         129656.31      26852.762      102803.54    
    184000   184000         0.22427595     0.16848927     318.0492       276.95706      41.092137      30.870827      298.07456      195.48657      130556.23      129656.54      26671.991      102984.55    
    185000   185000         0.22425437     0.27011831     313.6254       287.99373      25.631673      30.873798      299.65023      438.3999       131671.56      129653.91      26812.984      102840.93    
    186000   186000         0.2244857      0.27982363     306.62145      281.87878      24.742671      30.841983      296.95642      679.4848       132788.64      129661.44      26571.938      103089.5     
    187000   187000         0.22465448     0.22366977     314.839        283.8845       30.954492      30.818811      299.0006      -141.33953      129006.36      129656.85      26754.854      102902       
    188000   188000         0.22463887     0.26267204     307.63278      281.27449      26.358283      30.820953      298.52226      223.38821      130685.34      129657.24      26712.052      102945.19    
    189000   189000         0.22450858     0.32587516     301.8945       280.64838      21.246124      30.838839      296.90337     -80.398534      129286.53      129656.55      26567.191      103089.36    
    190000   190000         0.22445479     0.27315003     316.17298      290.82579      25.347184      30.84623       299.28642      302.09802      131042.84      129652.49      26780.43       102872.06    
    191000   191000         0.22459456     0.25109857     311.4979       283.92473      27.573173      30.827034      297.88715      703.03581      132894.31      129658.72      26655.221      103003.5     
    192000   192000         0.22463861     0.19497662     316.26872      280.7589       35.509817      30.820989      299.55623     -83.401959      129266.66      129650.5       26804.572      102845.93    
    193000   193000         0.22470776     0.30526564     307.12704      284.44652      22.680522      30.811505      298.73284     -303.11105      128260.27      129655.28      26730.894      102924.38    
    194000   194000         0.22478965     0.42186411     309.51106      293.09918      16.411882      30.80028       297.99424     -421.66687      127715.55      129656.19      26664.804      102991.39    
    195000   195000         0.22493651     0.19496885     319.73229      284.22106      35.511233      30.78017       298.59067     -181.10441      128820.96      129654.46      26718.173      102936.29    
    196000   196000         0.22504045     0.22848705     312.3454       282.04353      30.301866      30.765953      298.89238      39.633895      129837.54      129655.13      26745.17       102909.96    
    197000   197000         0.2249388      0.20476567     317.53583      283.7236       33.81223       30.779857      298.76661      583.6232       132341.43      129655.41      26733.916      102921.5     
    198000   198000         0.22483871     0.26862422     309.57805      283.80381      25.774236      30.793559      299.95789     -292.59589      128307.42      129654.03      26840.513      102813.52    
    199000   199000         0.22462179     0.17300411     310.96759      270.94783      40.019766      30.823296      298.01875      172.59359      130453.83      129659.5       26666.997      102992.5     
    200000   200000         0.22453787     0.30146768     312.08448      289.11822      22.966257      30.834816      297.65882     -250.90654      128501.7       129656.45      26634.79       103021.66    
    201000   201000         0.22458356     0.25424077     312.82521      285.59282      27.232391      30.828543      298.24393     -753.22961      126184.52      129651.11      26687.146      102963.96    
    202000   202000         0.22468164     0.22792487     311.38619      281.00958      30.376606      30.815085      298.64367     -174.07374      128854.49      129655.63      26722.916      102932.72    
    203000   203000         0.22474454     0.27192439     311.11085      285.64942      25.461431      30.806461      300.36432     -260.88151      128454.41      129655.07      26876.881      102778.19    
    204000   204000         0.22495112     0.16818471     323.69091      282.52436      41.166549      30.778172      299.29353      952.95672      134042.48      129656.69      26781.066      102875.62    
    205000   205000         0.22527494     0.23370067     312.33398      282.70812      29.625864      30.733929      299.88081      356.50714      131291.24      129650.49      26833.616      102816.87    
    206000   206000         0.22558449     0.37180743     302.83512      284.21369      18.621425      30.691756      298.6081       196.98377      130562.34      129655.76      26719.733      102936.03    
    207000   207000         0.22584912     0.21368042     324.96242      292.56084      32.401584      30.655795      298.48654     -342.09961      128084.57      129659.02      26708.855      102950.16    
    208000   208000         0.22604354     0.27819027     312.60193      287.71398      24.887945      30.629427      300.55176      220.45987      130666.72      129652.09      26893.653      102758.44    
    209000   209000         0.22636018     0.24096319     314.92793      286.19498      28.732953      30.586581      300.79017      215.60101      130644.7       129652.44      26914.987      102737.46    
    210000   210000         0.22646996     0.22780152     314.0824       283.68934      30.393054      30.571755      299.63753      232.39484      130722.34      129652.79      26811.847      102840.94    
    211000   211000         0.22663448     0.32966647     311.12201      290.12023      21.001784      30.549562      298.60811      101.3568       130124.79      129658.32      26719.733      102938.59    
    212000   212000         0.22668792     0.26609632     320.14915      294.13006      26.01909       30.54236       299.20669     -401.21568      127811.04      129657.55      26773.295      102884.26    
    213000   213000         0.22667614     0.21369209     320.65238      288.25256      32.399815      30.543948      298.35447      49.500425      129884.75      129656.93      26697.038      102959.89    
    214000   214000         0.22685323     0.33599778     313.59724      292.9912       20.606041      30.520103      298.19789     -175.78159      128847.45      129656.46      26683.027      102973.43    
    215000   215000         0.22696507     0.28457671     313.13843      288.80902      24.329413      30.505065      298.60242      399.8789       131497.13      129656.77      26719.225      102937.54    
    216000   216000         0.22716493     0.28725243     313.02678      288.92399      24.102787      30.478226      299.86079     -136.8425       129020.69      129650.48      26831.824      102818.66    
    217000   217000         0.2272144      0.27149773     310.87577      285.37433      25.501444      30.471591      297.41645     -146.43689      128978.76      129652.71      26613.103      103039.61    
    218000   218000         0.22732996     0.3165866      318.40905      296.53957      21.869479      30.4561        298.05193      99.465336      130116.61      129658.84      26669.966      102988.88    
    219000   219000         0.22726036     0.18644356     315.9395       278.80449      37.135013      30.465428      298.09835      631.82035      132564.02      129656.19      26674.12       102982.07    
    220000   220000         0.22705683     0.23582023     312.20783      282.84825      29.359586      30.492736      298.47368      357.15982      131306.85      129663.09      26707.705      102955.39    
    221000   221000         0.22685804     0.21384078     319.68304      287.30576      32.377286      30.519457      298.55001      107.69436      130152.71      129657.06      26714.534      102942.53    
    222000   222000         0.22662937     0.21190836     317.16422      284.49168      32.672538      30.550251      297.74703     -468.42972      127498.99      129654.85      26642.683      103012.17    
    223000   223000         0.22644485     0.18713552     321.47842      284.48072      36.997701      30.575145      298.48848      1.2792312      129657.46      129651.58      26709.029      102942.55    
    224000   224000         0.22623188     0.19272603     310.02396      274.09948      35.924488      30.603928      299.07465      832.0601       133486.08      129656.69      26761.48       102895.21    
    225000   225000         0.22606308     0.20571892     313.57577      279.92022      33.655553      30.62678       298.70724     -117.40428      129117.07      129657.4       26728.604      102928.8     
    226000   226000         0.22603164     0.19146862     328.51075      292.35034      36.160412      30.631039      299.9719       150.5459       130343.91      129651.05      26841.767      102809.28    
    227000   227000         0.22589562     0.32274791     314.7634       293.31141      21.451987      30.649483      298.6061       49.559072      129885.81      129657.72      26719.554      102938.17    
    228000   228000         0.22551017     0.19900224     319.39873      284.60725      34.791488      30.701871      299.99291      168.03443      130423.8       129650.45      26843.647      102806.8     
    229000   229000         0.22523883     0.16656428     327.1277       285.56066      41.56704       30.738857      299.80988     -117.3378       129114.69      129654.72      26827.269      102827.45    
    230000   230000         0.22513508     0.20756122     319.90923      286.5524       33.356829      30.753022      298.19805     -156.11483      128941.51      129660         26683.041      102976.96    
    231000   231000         0.22494162     0.21821434     311.59776      279.86939      31.728365      30.779471      298.02504     -435.0568       127655.55      129657.81      26667.56       102990.25    
    232000   232000         0.22477378     0.17669286     316.0383       276.85401      39.184289      30.802455      299.76223      388.52789      131445.4       129657.27      26823.006      102834.27    
    233000   233000         0.22448219     0.17926386     320.29935      281.67704      38.622309      30.842465      297.24223      10.008314      129707.67      129661.61      26597.513      103064.1     
    234000   234000         0.22419612     0.37434142     304.44436      285.94899      18.495373      30.881819      297.23331      687.86803      132825.25      129659.47      26596.715      103062.76    
    235000   235000         0.22407254     0.1930955      316.38803      280.53228      35.855751      30.898851      297.78504     -153.17191      128944.48      129649.43      26646.084      103003.34    
    236000   236000         0.22394905     0.29439976     302.25556      278.73793      23.517628      30.915889      298.95491      13.528661      129721.17      129658.91      26750.765      102908.15    
    237000   237000         0.22394348     0.2620631      304.53547      278.11594      26.419531      30.916659      298.7175       60.224852      129931.79      129654.62      26729.522      102925.1     
    238000   238000         0.22389648     0.15576078     313.86566      269.41555      44.450111      30.923148      299.01811     -179.26604      128833.77      129658.81      26756.42       102902.39    
    239000   239000         0.22362777     0.17445644     315.56899      275.88238      39.686608      30.960305      298.56867     -313.81127      128211         129655.26      26716.204      102939.05    
    240000   240000         0.2235322      0.17112619     316.99194      276.53301      40.458938      30.973542      299.15211      238.24277      130752.13      129655.67      26768.412      102887.25    
    241000   241000         0.2234714      0.23552708     318.81604      289.41991      29.396128      30.981969      297.66919      80.607324      130031.69      129660.71      26635.718      103024.99    
    242000   242000         0.22332226     0.18012216     316.31957      277.8813       38.438269      31.00266       297.17136      274.49338      130926.71      129663.41      26591.172      103072.24    
    243000   243000         0.22318792     0.15878308     317.66472      274.06068      43.604042      31.021321      298.2483       307.29983      131074.4       129660.11      26687.537      102972.57    
    244000   244000         0.22309938     0.18364277     308.83879      271.13742      37.70137       31.033632      298.97109     -321.75089      128177.77      129658.56      26752.213      102906.35    
    245000   245000         0.22289236     0.16046668     321.40422      278.25767      43.146552      31.062455      299.80903     -39.605314      129467.19      129649.47      26827.193      102822.28    
    246000   246000         0.22241688     0.21018867     318.32464      285.38479      32.939854      31.128861      299.19534     -410.36124      127765.53      129654.14      26772.28       102881.86    
    247000   247000         0.22198668     0.15952374     320.04797      276.64638      43.401591      31.189187      298.55664      110.3816       130163.66      129655.65      26715.127      102940.52    
    248000   248000         0.22167241     0.1906013      324.01849      287.69353      36.324956      31.233405      298.62851     -102.08352      129188.07      129657.89      26721.559      102936.33    
    249000   249000         0.22153618     0.1877736      318.40845      281.53647      36.871978      31.252611      299.39105      323.06244      131143.36      129656.52      26789.791      102866.73    
    250000   250000         0.22134755     0.17190886     321.029        280.75427      40.274737      31.279244      298.62659     -186.44677      128798.86      129656.95      26721.387      102935.56    
    251000   251000         0.22132527     0.19032014     312.17313      275.79451      36.378621      31.282392      297.53961      218.27654      130662.78      129658.21      26624.123      103034.09    
    252000   252000         0.22115705     0.19553524     311.78075      276.37238      35.408369      31.306187      298.29773      138.71238      130296.22      129657.82      26691.96       102965.86    
    253000   253000         0.2212003      0.24919943     304.39496      276.61166      27.783307      31.300066      298.09199      0.34199614     129659.02      129657.45      26673.55       102983.9     
    254000   254000         0.22099708     0.22269195     304.20679      273.11638      31.09041       31.328849      299.4322       328.37471      131159.63      129648.35      26793.473      102854.87    
    255000   255000         0.22094311     0.22735706     314.88209      284.42962      30.45247       31.336502      299.11573      200.60027      130574.11      129650.88      26765.156      102885.73    
    256000   256000         0.22071578     0.18063528     318.71484      280.38576      38.329079      31.368777      298.06974      197.77161      130568.36      129658.16      26671.56       102986.6     
    257000   257000         0.22064719     0.14760368     318.05232      271.14574      46.906582      31.378529      298.00317      252.25917      130818.08      129657.11      26665.603      102991.5     
    258000   258000         0.22042525     0.13255542     318.34397      266.11235      52.231617      31.410122      297.85422     -58.205834      129389.56      129657.44      26652.274      103005.16    
    259000   259000         0.22018538     0.13667421     322.97982      272.32225      50.657574      31.444341      298.89507      898.49773      133793.03      129657.87      26745.411      102912.46    
    260000   260000         0.21989653     0.12266224     325.9862       269.5419       56.444297      31.485646      298.86266      769.47215      133198.24      129656.9       26742.511      102914.38    
    261000   261000         0.2194549      0.15578953     321.02185      276.57994      44.441908      31.549007      298.57247     -185.38832      128809.79      129663.01      26716.544      102946.46    
    262000   262000         0.2191844      0.16868804     319.32147      278.27775      41.043716      31.587942      298.53715      48.053682      129880.56      129659.4       26713.384      102946.01    
    263000   263000         0.21900884     0.14432803     319.22464      271.25348      47.971166      31.613263      298.90598     -571.03009      127026.62      129654.68      26746.387      102908.29    
    264000   264000         0.21874966     0.16184921     317.54757      274.76958      42.77799       31.65072       298.52529      283.58648      130957.57      129652.42      26712.323      102940.1     
    265000   265000         0.21847509     0.1462315      320.32369      272.97696      47.346734      31.690497      296.94651      531.33826      132100.3       129654.92      26571.052      103083.87    
    266000   266000         0.21829598     0.1559524      316.68061      272.28511      44.395494      31.716499      298.13599     -245.07777      128531.07      129659         26677.488      102981.51    
    267000   267000         0.21805945     0.1478397      317.91381      271.08211      46.831697      31.750901      298.62073     -60.29675       129375         129652.51      26720.862      102931.65    
    268000   268000         0.21791342     0.19216052     309.38124      273.35103      36.030211      31.772179      298.21022     -28.99474       129518.79      129652.24      26684.13       102968.11    
    269000   269000         0.21763613     0.25781582     309.89553      283.04076      26.854768      31.812659      297.68856     -384.85335      127887.65      129658.87      26637.451      103021.41    
    270000   270000         0.21738167     0.17339747     312.56598      272.637        39.92898       31.849898      297.32355      270.16335      130899.63      129656.25      26604.79       103051.46    
    271000   271000         0.21693699     0.11097478     328.49161      266.1028       62.388808      31.915185      299.4413       227.00621      130701.26      129656.51      26794.288      102862.22    
    272000   272000         0.21663488     0.17878452     316.30464      277.57878      38.725859      31.959692      298.58442      318.71507      131125.37      129658.54      26717.614      102940.93    
    273000   273000         0.21634907     0.16837925     316.80093      275.68194      41.118986      32.001914      298.37482      339.45106      131221.57      129659.31      26698.859      102960.46    
    274000   274000         0.21614267     0.1946255      318.49497      282.92109      35.573879      32.032472      298.78989      420.15753      131588.66      129654.97      26736          102918.97    
    275000   275000         0.21605553     0.15984693     320.14873      276.83489      43.313839      32.045391      299.67326      232.77762      130725.83      129654.51      26815.044      102839.47    
    276000   276000         0.21602695     0.16905325     320.65319      279.69814      40.955049      32.049631      299.52497     -193.3624       128763.52      129653.44      26801.775      102851.66    
    277000   277000         0.2160914      0.23016089     312.34763      282.26613      30.081497      32.040072      297.64336     -346.86869      128056.94      129653.34      26633.407      103019.93    
    278000   278000         0.21612694     0.21119083     313.7418       280.95825      32.783546      32.034803      297.55729      539.89313      132144.3       129659.55      26625.705      103033.84    
    279000   279000         0.21616585     0.34251429     311.42944      291.21544      20.214         32.029038      297.17065      254.65079      130828.53      129656.55      26591.109      103065.44    
    280000   280000         0.21628063     0.1817157      313.02133      274.92014      38.101187      32.01204       297.75243     -224.29818      128625.29      129657.58      26643.167      103014.42    
    281000   281000         0.21629523     0.25374748     310.38324      283.09791      27.285331      32.009878      298.71684      58.908484      129927.71      129656.6       26729.463      102927.14    
    282000   282000         0.21623189     0.17952675     320.8759       282.31015      38.565752      32.019256      298.84051      484.48394      131885.65      129655.91      26740.529      102915.38    
    283000   283000         0.21622519     0.18176738     319.34102      281.25067      38.090356      32.020247      298.25903     -469.4096       127498.03      129658.4       26688.497      102969.9     
    284000   284000         0.21625488     0.15938107     316.97624      273.5358       43.440442      32.015851      299.61975      148.78103      130339.22      129654.49      26810.256      102844.23    
    285000   285000         0.21617074     0.16582066     315.98109      274.22764      41.753446      32.028314      298.63818      693.01811      132846.04      129656.56      26722.424      102934.14    
    286000   286000         0.21598707     0.15519321     318.53501      273.92234      44.612674      32.055549      298.70525     -292.98727      128304.57      129652.98      26728.426      102924.56    
    287000   287000         0.21588799     0.19206799     319.62398      283.57641      36.047569      32.07026       298.44347      45.775585      129874.53      129663.85      26705.001      102958.85    
    288000   288000         0.21579261     0.20463796     316.77663      282.9433       33.833333      32.084436      299.01818     -49.093958      129430.11      129656.06      26756.427      102899.63    
    289000   289000         0.21581763     0.21713854     311.67592      279.79036      31.88556       32.080716      297.23752     -278.15477      128374.98      129655.13      26597.091      103058.04    
    290000   290000         0.21578785     0.11855856     329.2692       270.87119      58.398012      32.085143      298.56395      144.1682       130314.98      129651.48      26715.782      102935.69    
    291000   291000         0.21581399     0.17579652     320.01109      280.62701      39.384078      32.081257      298.15687      654.46809      132668.37      129656.3       26679.356      102976.95    
    292000   292000         0.21586765     0.35455855     302.0266       282.49926      19.527337      32.073283      298.66389     -436.45162      127650.51      129659.2       26724.725      102934.47    
    293000   293000         0.21582292     0.1490761      323.71541      277.27213      46.443286      32.07993       300.38851     -174.89233      128851.23      129656.14      26879.045      102777.09    
    294000   294000         0.21562978     0.20327568     318.14693      284.08686      34.060071      32.108664      299.28027      575.52167      132300.59      129651.87      26779.879      102871.99    
    295000   295000         0.2155511      0.19574033     323.89411      288.52284      35.37127       32.120384      299.38323     -110.34566      129148.42      129656.26      26789.092      102867.17    
    296000   296000         0.21548926     0.16418745     318.90521      276.73643      42.168778      32.129602      298.42074      71.152435      129983.71      129656.24      26702.967      102953.28    
    297000   297000         0.21532874     0.13739794     323.16341      272.77267      50.390743      32.153554      299.36036      435.87031      131663.18      129657.17      26787.045      102870.13    
    298000   298000         0.21516681     0.19015093     315.92024      279.50925      36.410992      32.177751      298.67862      119.43743      130202.84      129653.15      26726.042      102927.11    
    299000   299000         0.21510054     0.27672277     309.44035      284.42042      25.019929      32.187665      298.1043      -441.26392      127621.95      129652.78      26674.652      102978.13    
    300000   300000         0.21496964     0.19452453     315.98644      280.3941       35.592344      32.207264      298.90501     -336.2165       128104.71      129652.09      26746.301      102905.79    
    301000   301000         0.21486294     0.1468962      318.44315      271.31065      47.132492      32.223259      298.6063       32.224861      129807.53      129659.22      26719.571      102939.65    
    302000   302000         0.21461229     0.11745596     338.28075      279.33454      58.946215      32.260893      299.14697     -501.85159      127337.22      129646.9       26767.951      102878.95    
    303000   303000         0.21439735     0.15483899     317.04686      272.33213      44.714732      32.293236      299.43313     -311.12838      128221.22      129653.13      26793.557      102859.57    
    304000   304000         0.21428506     0.21696117     316.93102      285.0194       31.911627      32.310157      297.60096      243.52299      130779.33      129658.56      26629.613      103028.95    
    305000   305000         0.21417085     0.23501589     309.25816      279.79809      29.460068      32.327388      298.89796     -775.33382      126083.22      129651.55      26745.669      102905.88    
    306000   306000         0.21404867     0.17446413     315.33897      275.65411      39.684858      32.34584       299.49391      551.58687      132197.3       129658.73      26798.996      102859.73    
    307000   307000         0.21389762     0.14393258     316.86426      268.76129      48.102965      32.368682      299.74329      473.55097      131831.85      129652.42      26821.31       102831.11    
    308000   308000         0.21382186     0.25600167     304.36332      277.31824      27.045074      32.38015       298.8067      -247.07383      128518.61      129655.72      26737.503      102918.22    
    309000   309000         0.21376199     0.15258135     320.58049      275.20414      45.376345      32.389219      299.14589     -44.185331      129456.64      129659.99      26767.854      102892.14    
    310000   310000         0.2136903      0.16469041     318.62314      276.58314      42.039996      32.400085      299.7676       312.91623      131094.39      129654.25      26823.486      102830.76    
    311000   311000         0.21360249     0.27492419     302.30123      277.11762      25.183611      32.413406      297.16618      295.52998      131014.24      129654.12      26590.708      103063.42    
    312000   312000         0.213618       0.24153585     311.44472      282.77989      28.66483       32.411052      299.93012      422.58454      131590.63      129645.76      26838.028      102807.74    
    313000   313000         0.21365158     0.21100511     312.69509      279.88269      32.8124        32.405958      299.98857     -247.51805      128513.95      129653.11      26843.258      102809.85    
    314000   314000         0.2135649      0.12859064     319.44654      265.60449      53.842052      32.41911       299.11956      352.71802      131276.75      129653.43      26765.498      102887.93    
    315000   315000         0.21354371     0.29432971     308.0642       284.54097      23.523226      32.422327      298.56551     -396.59589      127828.73      129653.98      26715.922      102938.06    
    316000   316000         0.21347896     0.18879365     306.1559       269.48314      36.67276       32.432161      297.97107     -527.43979      127228.26      129655.7       26662.73       102992.97    
    317000   317000         0.21344352     0.17935466     303.3078       264.70504      38.602755      32.437546      297.61066     -200.06554      128740.95      129661.71      26630.48       103031.23    
    318000   318000         0.21339602     0.30653548     307.65253      285.06596      22.586567      32.444767      298.85907     -142.33227      129002.98      129658.03      26742.189      102915.84    
    319000   319000         0.21336432     0.30790301     303.8375       281.35125      22.48625       32.449587      298.15595     -228.32791      128606.81      129657.64      26679.274      102978.37    
    320000   320000         0.21350242     0.3358754      308.46483      287.85128      20.613549      32.428597      297.29624     -63.984974      129357.84      129652.32      26602.346      103049.98    
    321000   321000         0.21367649     0.42887527     307.71921      291.57563      16.143584      32.40218       297.22618      577.08848      132315.28      129659.34      26596.077      103063.27    
    322000   322000         0.21373492     0.35339304     309.57981      289.98808      19.591738      32.393322      297.74508      265.49115      130875.54      129653.67      26642.509      103011.16    
    323000   323000         0.21380111     0.36077557     307.5846       288.39377      19.190834      32.383293      298.17345      141.91299      130315.13      129662         26680.839      102981.16    
    324000   324000         0.21389149     0.25060432     311.41125      283.7837       27.627552      32.36961       297.86503     -532.18782      127211.69      129660.98      26653.242      103007.74    
    325000   325000         0.21391907     0.23536262     312.06894      282.65228      29.416668      32.365436      299.2858      -533.27246      127203.22      129657.51      26780.374      102877.13    
    326000   326000         0.21395597     0.24201604     314.56248      285.95453      28.607955      32.359855      298.69265      422.98254      131609.33      129662.63      26727.298      102935.34    
    327000   327000         0.21389179     0.14604409     323.32478      275.91729      47.407491      32.369565      300.94493     -36.54429       129481.97      129650.15      26928.834      102721.32    
    328000   328000         0.21382903     0.2529464      310.55765      283.1859       27.371744      32.379065      299.02697     -314.87076      128204.64      129653.77      26757.213      102896.56    
    329000   329000         0.21382457     0.17896847     322.46831      283.78226      38.686055      32.379741      298.75696      44.403111      129857.05      129652.69      26733.053      102919.64    
    330000   330000         0.21354925     0.16099108     318.12522      275.11921      43.006012      32.421487      297.70467      413.60488      131565.23      129661.7       26638.893      103022.8     
    331000   331000         0.21333155     0.22480939     314.89858      284.101        30.797574      32.454571      299.01998      53.479236      129899.65      129653.52      26756.588      102896.93    
    332000   332000         0.21327429     0.19447691     318.89497      283.29391      35.601059      32.463285      299.2906      -240.36022      128542.69      129648.9       26780.803      102868.1     
    333000   333000         0.21313008     0.150577       328.99957      283.01922      45.980356      32.485251      299.98726      2.2726258      129668.57      129658.11      26843.141      102814.97    
[...]
   1431000   1431000        0.20047628     0.1264498      333.77191      279.0183       54.753618      34.535677      299.38712      46.64332       129870.12      129655.45      26789.44       102866.01    
   1432000   1432000        0.20045199     0.19441457     323.4981       287.88562      35.612475      34.539861      298.58641      537.02959      132128.6       129657.02      26717.792      102939.23    
   1433000   1433000        0.20042626     0.13017515     330.54704      277.36036      53.18668       34.544296      299.29405      3.3006062      129667.21      129652.02      26781.112      102870.91    
   1434000   1434000        0.20042903     0.22720025     314.25033      283.77684      30.473487      34.543819      299.23899     -225.02323      128613.98      129649.6       26776.185      102873.42    
   1435000   1435000        0.20043076     0.20748255     319.95938      286.58991      33.369477      34.54352       297.53184     -651.10965      126661.37      129657.98      26623.428      103034.55    
   1436000   1436000        0.2004138      0.18616096     321.27134      284.07995      37.191385      34.546443      298.9983       310.69635      131078.16      129648.24      26754.648      102893.59    
   1437000   1437000        0.20040966     0.16523655     320.08455      278.1835       41.901046      34.547158      296.30773      8.779702       129701.96      129661.55      26513.894      103147.66    
   1438000   1438000        0.2003937      0.20732297     322.88073      289.48556      33.395161      34.549909      299.02275      687.76376      132823.42      129658.12      26756.836      102901.29    
   1439000   1439000        0.20036723     0.20734003     317.69613      284.30371      33.392414      34.554473      298.63349      271.83557      130907.35      129656.28      26722.004      102934.27    
   1440000   1440000        0.20033704     0.14808535     320.87012      274.11611      46.754011      34.55968       297.6127       112.82007      130179.1       129659.87      26630.663      103029.2     
   1441000   1441000        0.20029109     0.18072831     314.90212      276.59277      38.309349      34.56761       298.28466     -172.99804      128862.5       129658.69      26690.791      102967.89    
   1442000   1442000        0.20025573     0.21522249     314.77944      282.61001      32.169426      34.573712      299.92088     -193.93699      128759.88      129652.43      26837.202      102815.23    
   1443000   1443000        0.20022577     0.13355231     322.78206      270.94032      51.84174       34.578886      299.10695     -50.084971      129420.71      129651.22      26764.371      102886.85    
   1444000   1444000        0.20019526     0.12669838     325.12906      270.48287      54.646194      34.584156      299.80828     -395.51173      127828.12      129648.39      26827.126      102821.26    
   1445000   1445000        0.20016512     0.17596897     323.4603       284.11481      39.345483      34.589364      298.71048     -648.53636      126668.53      129653.29      26728.894      102924.4     
   1446000   1446000        0.20014746     0.1729218      320.85018      280.81136      40.038816      34.592415      299.63442     -357.71535      128010.55      129656.87      26811.568      102845.3     
   1447000   1447000        0.20011517     0.27119103     318.20013      292.66985      25.530284      34.597997      303.39566     -343.95616      128065.01      129648         27148.128      102499.87    
   1448000   1448000        0.20006595     0.15019285     323.01906      276.9211       46.09796       34.60651       298.33559     -524.91887      127235.63      129651.47      26695.348      102956.12    
   1449000   1449000        0.2000276      0.17050224     311.17553      270.56854      40.606997      34.613143      298.44496     -356.14769      128021.05      129660.15      26705.135      102955.02    
   1450000   1450000        0.19999536     0.13203296     323.75827      271.31997      52.438301      34.618724      298.77412     -341.16574      128087.21      129657.36      26734.588      102922.77    
   1451000   1451000        0.19997217     0.15535779     317.17893      272.61352      44.565413      34.622738      298.22574     -9.6081035      129611.8       129656.02      26685.518      102970.5     
   1452000   1452000        0.19996852     0.15136983     326.34329      280.60377      45.739525      34.62337       299.82885     -771.14395      126109.34      129658.38      26828.966      102829.41    
   1453000   1453000        0.19997232     0.23689545     318.11995      288.89362      29.226327      34.622712      297.96469      200.48707      130579.91      129657.2       26662.16       102995.04    
   1454000   1454000        0.19996244     0.17573951     324.87459      285.47773      39.396855      34.624422      299.57824      225.32936      130691.65      129654.61      26806.542      102848.07    
   1455000   1455000        0.19994377     0.17736747     317.26659      278.23134      39.035254      34.627656      299.87699     -783.89898      126043.12      129650.86      26833.274      102817.59    
   1456000   1456000        0.19993007     0.1729185      323.32814      283.28856      40.039579      34.630029      300.50872     -475.4539       127461.27      129649.45      26889.802      102759.65    
   1457000   1457000        0.19992933     0.2160242      318.66621      286.61617      32.050039      34.630156      300.95574      74.361178      129992.35      129650.12      26929.802      102720.32    
   1458000   1458000        0.1998947      0.1764662      325.78333      286.54871      39.234618      34.636156      299.95942      163.34788      130405.34      129653.56      26840.65       102812.91    
   1459000   1459000        0.19987028     0.18184266     320.46282      282.38823      38.074587      34.640389      298.41648     -45.428096      129445.69      129654.76      26702.587      102952.17    
   1460000   1460000        0.19986364     0.18680984     311.56492      274.50271      37.062203      34.641539      298.14172     -265.12764      128433.92      129654.11      26678          102976.11    
   1461000   1461000        0.19983901     0.16305671     319.03397      276.57277      42.461202      34.645809      298.62207      630.48598      132560.83      129659.14      26720.982      102938.16    
   1462000   1462000        0.19982355     0.20753157     318.9679       285.60631      33.361594      34.648489      298.53456     -661.33799      126612.72      129656.4       26713.152      102943.25    
   1463000   1463000        0.19981611     0.19688893     320.32411      285.15919      35.164923      34.649779      298.90105     -339.4425       128090.63      129652.84      26745.946      102906.9     
   1464000   1464000        0.19978795     0.14578485     327.5429       280.0511       47.491795      34.654663      298.45571     -128.74927      129061.59      129654.13      26706.097      102948.03    
   1465000   1465000        0.19977223     0.20669245     317.50541      284.00838      33.497034      34.657391      302.008       -238.61504      128551.35      129649.53      27023.959      102625.57    
   1466000   1466000        0.19975965     0.17450368     319.32681      279.65095      39.675863      34.659573      299.29438      813.8453       133401.66      129656.1       26781.141      102874.96    
   1467000   1467000        0.19976045     0.17717336     316.68885      277.61083      39.078019      34.659434      299.4334      -360.1795       128002.37      129660.03      26793.581      102866.45    
   1468000   1468000        0.19973577     0.29440503     305.65764      282.14044      23.517207      34.663717      296.9902      -364.3668       127983.9       129660.83      26574.961      103085.87    
   1469000   1469000        0.19974186     0.22072033     310.32171      278.95358      31.36813       34.662659      297.66351     -296.53435      128291.04      129655.78      26635.209      103020.57    
   1470000   1470000        0.19974332     0.20021324     311.49392      276.91287      34.58105       34.662406      298.70842     -476.13424      127462.98      129654.29      26728.71       102925.58    
   1471000   1471000        0.19974625     0.2700853      312.37975      286.74494      25.634806      34.661898      300.36056      118.25922      130201.03      129656.76      26876.545      102780.22    
   1472000   1472000        0.19974436     0.16719949     322.54788      281.13876      41.409121      34.662226      301.23048     -104.49772      129169.85      129650.78      26954.386      102696.39    
   1473000   1473000        0.19972644     0.27083303     307.81178      282.24775      25.564032      34.665335      298.56613     -653.13827      126651.95      129657.89      26715.977      102941.91    
   1474000   1474000        0.19972078     0.14513273     319.45932      271.75413      47.705189      34.666318      300.34282     -850.89833      125734.95      129651.04      26874.957      102776.09    
   1475000   1475000        0.19970243     0.22208348     318.31074      287.13514      31.175593      34.669504      299.56785     -526.6749       127226.36      129650.28      26805.612      102844.67    
   1476000   1476000        0.19972526     0.35997645     301.13647      281.90304      19.233436      34.66554       298.7349      -248.12756      128515.51      129657.47      26731.079      102926.39    
   1477000   1477000        0.19973703     0.32192626     303.69379      282.18705      21.506739      34.663498      297.45246     -307.29583      128245.79      129660.06      26616.325      103043.74    
   1478000   1478000        0.19975612     0.16658851     314.21948      272.65848      41.560994      34.660185      298.4699       269.21038      130892.09      129653.1       26707.367      102945.73    
   1479000   1479000        0.19974879     0.16673745     315.11028      273.58641      41.523869      34.661457      298.53611     -809.23676      125934.02      129658.37      26713.291      102945.08    
   1480000   1480000        0.19975883     0.16208949     319.22939      276.51481      42.714577      34.659715      299.72523      177.9386       130470.29      129651.37      26819.694      102831.67    
   1481000   1481000        0.19976004     0.19160428     318.27665      282.14184      36.134809      34.659504      300.3932      -408.77391      127770.83      129652.14      26879.465      102772.67    
   1482000   1482000        0.1997702      0.24494807     312.70548      284.43996      28.265518      34.657742      298.33293     -176.36912      128845.2       129656.9       26695.11       102961.79    
   1483000   1483000        0.19978811     0.20200703     320.63361      286.35964      34.273976      34.654635      298.46373      195.24268      130547.92      129649.35      26706.814      102942.54    
   1484000   1484000        0.19980953     0.2230898      311.67967      280.6447       31.034965      34.65092       299.01818     -245.52131      128523.66      129653.62      26756.427      102897.2     
   1485000   1485000        0.19980275     0.19825462     315.72996      280.80728      34.922687      34.652096      298.1462      -111.95922      129143.13      129658.4       26678.401      102980       
   1486000   1486000        0.19979938     0.17142704     319.23763      278.84969      40.387934      34.652681      299.23772     -85.372804      129260.07      129652.98      26776.072      102876.91    
   1487000   1487000        0.19979488     0.28430005     313.92142      289.56833      24.353088      34.653461      299.10643     -704.96943      126407.68      129652.17      26764.324      102887.84    
   1488000   1488000        0.19976755     0.15038719     320.40947      274.37108      46.038389      34.658202      299.60672     -574.80967      127009.05      129654.5       26809.09       102845.41    
   1489000   1489000        0.19973868     0.14968945     325.07324      278.82025      46.252987      34.663212      298.6051      -532.53404      127205.96      129656.84      26719.464      102937.38    
   1490000   1490000        0.19970202     0.11467155     323.69122      263.3137       60.377523      34.669575      297.50179     -191.14951      128777.55      129657.28      26620.739      103036.54    
   1491000   1491000        0.1996715      0.21354226     314.57527      282.15273      32.422547      34.674873      300.75786      314.74095      131102.52      129653.98      26912.095      102741.89    
   1492000   1492000        0.19965699     0.19612444     312.8286       277.5266       35.301996      34.677395      299.38356      453.46494      131746.63      129659.65      26789.122      102870.53    
   1493000   1493000        0.19963357     0.13688475     322.56598      271.98633      50.579659      34.681462      299.40226     -236.37231      128563.3       129651.16      26790.795      102860.37    
   1494000   1494000        0.1996337      0.18767747     313.74925      276.85839      36.890865      34.681439      297.71138     -16.221905      129584.55      129659.21      26639.493      103019.71    
   1495000   1495000        0.19965326     0.23011184     307.90442      277.81651      30.087909      34.678041      297.4475      -245.66049      128528.38      129658.98      26615.881      103043.1     
   1496000   1496000        0.19965573     0.18958279     317.64385      281.12374      36.520109      34.677613      301.22097     -190.95017      128769.7       129648.51      26953.535      102694.98    
   1497000   1497000        0.19964765     0.26923141     310.18667      284.47056      25.716108      34.679016      298.96126     -20.671836      129561.85      129656.99      26751.334      102905.66    
   1498000   1498000        0.19962908     0.24521079     319.43801      291.20278      28.235234      34.682243      297.71287      162.29667      130399.57      129652.63      26639.626      103013.01    
   1499000   1499000        0.19963        0.19339629     324.35121      288.55122      35.799983      34.682082      299.16361      455.55773      131753.68      129657.06      26769.441      102887.62    
   1500000   1500000        0.19964224     0.39101634     309.06678      291.36015      17.706636      34.679955      299.94012     -68.356013      129338.14      129652.74      26838.923      102813.81    
   1501000   1501000        0.19962906     0.15326614     326.57232      281.39872      45.173605      34.682245      298.15257     -555.62702      127101.92      129659.09      26678.971      102980.12    
   1502000   1502000        0.19961543     0.18034213     322.28359      283.8922       38.391385      34.684613      300.13714     -339.93232      128089         129653.48      26856.552      102796.92    
   1503000   1503000        0.19960929     0.21234322     306.79149      274.18586      32.605628      34.68568       297.06527      329.56153      131175.33      129658.58      26581.678      103076.91    
   1504000   1504000        0.19959834     0.3056595      312.17222      289.52092      22.651297      34.687583      299.41656     -39.762624      129472.34      129655.34      26792.074      102863.27    
   1505000   1505000        0.19958237     0.16848271     327.35803      286.26429      41.093737      34.690359      298.92064      404.50143      131520.37      129658.73      26747.699      102911.03    
   1506000   1506000        0.1995656      0.17074772     319.91051      279.3619       40.548617      34.693274      296.9629      -81.55681       129280.78      129656.13      26572.519      103083.61    
   1507000   1507000        0.19953174     0.11903436     332.45937      274.29478      58.164586      34.699162      298.06499     -400.44308      127813.54      129656.5       26671.134      102985.36    
   1508000   1508000        0.19946804     0.1286364      331.96106      278.13816      53.822898      34.710243      298.74868      324.68117      131148.48      129654.2       26732.312      102921.89    
   1509000   1509000        0.19943885     0.17234674     317.0982       276.92579      40.172412      34.715323      297.79031     -712.79131      126370.13      129650.61      26646.556      103004.06    
   1510000   1510000        0.19942359     0.20343897     321.02985      286.99712      34.032733      34.717979      300.07543      50.654409      129886.2       129653.08      26851.031      102802.04    
   1511000   1511000        0.19943186     0.21114097     314.97612      282.18484      32.791286      34.716539      298.49555      404.02612      131516.29      129656.84      26709.662      102947.18    
   1512000   1512000        0.19943292     0.16489196     322.81063      280.82202      41.98861       34.716356      298.82079     -242.7342       128533.55      129650.69      26738.764      102911.92    
   1513000   1513000        0.19942849     0.20489896     314.45267      280.66244      33.790236      34.717126      297.64847      175.40913      130464.84      129657.55      26633.864      103023.69    
   1514000   1514000        0.1994281      0.20552254     317.17025      283.48254      33.687711      34.717194      299.34933      277.7572       130929.01      129650.69      26786.059      102864.63    
   1515000   1515000        0.19942127     0.17642078     319.37321      280.12849      39.24472       34.718383      299.73289      26.610081      129775.52      129653.05      26820.379      102832.67    
   1516000   1516000        0.19940094     0.22874582     316.43381      286.16622      30.267588      34.721922      300.93932     -540.00279      127165.59      129650.85      26928.333      102722.51    
   1517000   1517000        0.19939379     0.20326438     317.55503      283.49307      34.061964      34.723167      299.57216      113.43996      130173.53      129651.45      26805.998      102845.45    
   1518000   1518000        0.19938368     0.21008171     315.04922      282.09259      32.956624      34.724929      298.65811      301.21014      131041.37      129655.11      26724.208      102930.91    
   1519000   1519000        0.19937502     0.15711224     321.41459      277.34683      44.067758      34.726436      296.41121     -176.65552      128848.13      129661.16      26523.153      103138       
   1520000   1520000        0.19934954     0.18610759     312.65652      275.45447      37.202051      34.730875      299.53125     -645.11329      126682.7       129651.71      26802.337      102849.37    
Loop time of 21604.3 on 32 procs for 1500000 steps with 30020 atoms

Performance: 5.999 ns/day, 4.001 hours/ns, 69.431 timesteps/s, 2.084 Matom-step/s
99.5% CPU use with 32 MPI tasks x 1 OpenMP threads

MPI task timing breakdown:
Section |  min time  |  avg time  |  max time  |%varavg| %total
---------------------------------------------------------------
Pair    | 9539.6     | 10651      | 11671      | 571.3 | 49.30
Bond    | 227.02     | 253.63     | 276.55     |  79.2 |  1.17
Kspace  | 7539.6     | 8531.7     | 9745       | 649.1 | 39.49
Neigh   | 756.74     | 773.19     | 794.61     |  47.1 |  3.58
Comm    | 1038.2     | 1188.8     | 1353.1     | 248.4 |  5.50
Output  | 0.1385     | 0.18205    | 0.39577    |  10.3 |  0.00
Modify  | 129.09     | 169.13     | 216.5      | 171.2 |  0.78
Other   |            | 36.51      |            |       |  0.17

Nlocal:        938.125 ave         998 max         874 min
Histogram: 1 2 2 7 3 7 3 2 3 2
Nghost:        10704.9 ave       10856 max       10556 min
Histogram: 2 1 4 6 3 6 3 4 0 3
Neighs:         512909 ave      559926 max      457503 min
Histogram: 1 3 2 7 3 2 4 2 4 4

Total # of neighbors = 16413095
Ave neighs/atom = 546.73867
Ave special neighs/atom = 10.787475
Neighbor list builds = 59057
Dangerous builds = 0
Total wall time: 6:04:51
