units real
atom_style full
boundary p p p

# styles
pair_style lj/charmm/coul/long 8.0 12.0
kspace_style pppm 1e-6
dielectric 1.000000
bond_style harmonic
angle_style harmonic
dihedral_style fourier
improper_style cvff
special_bonds amber
pair_modify mix arithmetic
neighbor 2.0 bin
neigh_modify delay 0 every 1 check yes

# system definition
read_data ../final.data
Reading data file ...
  orthogonal box = (-35.667086 -39.652884 -27.891195) to (35.667086 39.652884 27.891195)
  4 by 4 by 2 MPI processor grid
  reading atoms ...
  30020 atoms
  reading velocities ...
  30020 velocities
  scanning bonds ...
  3 = max bonds/atom
  scanning angles ...
  6 = max angles/atom
  scanning dihedrals ...
  24 = max dihedrals/atom
  orthogonal box = (-35.667086 -39.652884 -27.891195) to (35.667086 39.652884 27.891195)
  4 by 4 by 2 MPI processor grid
  reading bonds ...
  30010 bonds
  reading angles ...
  56000 angles
  reading dihedrals ...
  75910 dihedrals
Finding 1-2 1-3 1-4 neighbors ...
  special bond factors lj:    0        0        0.5     
  special bond factors coul:  0        0        0.8333333333333334
     4 = max # of 1-2 neighbors
    11 = max # of 1-3 neighbors
    22 = max # of 1-4 neighbors
    26 = max # of special neighbors
  special bonds CPU = 0.076 seconds
  read_data CPU = 0.638 seconds
# do not reset velocities

# vars
variable tLog equal 1000
variable nEvery equal 10
variable nRepeat equal 100
variable boolDump equal 0
variable tDump equal 1000

variable tPreeq equal 10000
variable tPrerun equal 10000
variable tTCrun equal 1500000

variable diffT_delay equal ${tPreeq}+${tPreeq}
variable diffT_delay equal 10000+${tPreeq}
variable diffT_delay equal 10000+10000
# heatflux of 0.05 give good results over 1 ns
variable heat_flux equal 0.02
variable heat_flux_neg equal -1*v_heat_flux

# defining region
variable hot_lo equal (lz*0)+zlo
variable hot_hi equal (lz*0.05)+zlo
variable cold_lo equal (lz*0.50)+zlo
variable cold_hi equal (lz*0.55)+zlo

print "DEBUG: ${hot_lo} ${hot_hi} ${cold_lo} ${cold_hi}"
DEBUG: -27.8911949509768 -25.1020754558791 0 2.78911949509768

# define heating and cooling block regions
region hot block INF INF INF INF ${hot_lo} ${hot_hi} units box
region hot block INF INF INF INF -27.8911949509768 ${hot_hi} units box
region hot block INF INF INF INF -27.8911949509768 -25.1020754558791 units box
region cold block INF INF INF INF ${cold_lo} ${cold_hi} units box
region cold block INF INF INF INF 0 ${cold_hi} units box
region cold block INF INF INF INF 0 2.78911949509768 units box
compute Thot all temp/region hot
compute Tcold all temp/region cold

# STEP 1 - 1st equilibration (nve)
# 1a - thermo output for md2
thermo_style custom step time temp c_Thot c_Tcold press enthalpy etotal ke pe
thermo_modify colname c_Thot Temp_hot colname c_Tcold Temp_cold
thermo_modify flush yes
thermo ${tLog}
thermo 1000

# 1b - nve equilibration
timestep 1.0
fix md2 all nve
run ${tPreeq}
run 10000

CITE-CITE-CITE-CITE-CITE-CITE-CITE-CITE-CITE-CITE-CITE-CITE-CITE

Your simulation uses code contributions which should be cited:

- Type Label Framework: https://doi.org/10.1021/acs.jpcb.3c08419

@Article{Gissinger24,
 author = {Jacob R. Gissinger, Ilia Nikiforov, Yaser Afshar, Brendon Waters, Moon-ki Choi, Daniel S. Karls, Alexander Stukowski, Wonpil Im, Hendrik Heinz, Axel Kohlmeyer, and Ellad B. Tadmor},
 title = {Type Label Framework for Bonded Force Fields in LAMMPS},
 journal = {J. Phys. Chem. B},
 year =    2024,
 volume =  128,
 number =  13,
 pages =   {3282–-3297}
}

CITE-CITE-CITE-CITE-CITE-CITE-CITE-CITE-CITE-CITE-CITE-CITE-CITE

PPPM initialization ...
  using 12-bit tables for long-range coulomb (src/kspace.cpp:342)
  G vector (1/distance) = 0.25787445
  grid = 54 60 45
  stencil order = 5
  estimated absolute RMS force accuracy = 0.00038404524
  estimated relative force accuracy = 1.1565408e-06
  using double precision FFTW3
  3d grid and FFT values/proc = 12760 6480
Generated 21 of 21 mixed pair_coeff terms from arithmetic mixing rule
Neighbor list info ...
  update: every = 1 steps, delay = 0 steps, check = yes
  max neighbors/atom: 2000, page size: 100000
  master list distance cutoff = 14
  ghost atom cutoff = 14
  binsize = 7, bins = 11 12 8
  1 neighbor lists, perpetual/occasional/extra = 1 0 0
  (1) pair lj/charmm/coul/long, perpetual
      attributes: half, newton on
      pair build: half/bin/newton
      stencil: half/bin/3d
      bin: standard
Per MPI rank memory allocation (min/avg/max) = 20.61 | 20.98 | 21.22 Mbytes
   Step          Time           Temp         Temp_hot      Temp_cold        Press         Enthalpy        TotEng         KinEng         PotEng    
         0   0              297.69673      310.36282      297.60185      213.30029      130639.82      129658.15      26638.183      103019.96    
      1000   1000           299.11432      313.79099      296.40282      126.92638      130241.92      129657.77      26765.029      102892.74    
      2000   2000           297.98715      295.44246      299.24571     -255.02617      128480.62      129654.33      26664.17       102990.16    
      3000   3000           298.11551      295.27447      303.8804      -298.19502      128287.58      129659.96      26675.655      102984.3     
      4000   4000           299.95835      307.74114      304.99952      311.10856      131087.29      129655.47      26840.554      102814.92    
      5000   5000           298.69842      306.66691      291.58773      392.25071      131463.1       129657.84      26727.814      102930.03    
      6000   6000           296.34515      295.2959       298.83329     -179.41996      128831.71      129657.46      26517.242      103140.22    
      7000   7000           296.98053      294.96875      297.93059      223.508        130686.36      129657.71      26574.096      103083.61    
      8000   8000           299.75918      305.11232      314.16404     -23.87276       129539.12      129648.99      26822.733      102826.26    
      9000   9000           299.56213      318.37306      293.96481      145.93954      130328.32      129656.66      26805.1        102851.56    
     10000   10000          299.2864       292.56193      291.67543     -387.29479      127875.8       129658.25      26780.428      102877.82    
Loop time of 144.319 on 32 procs for 10000 steps with 30020 atoms

Performance: 5.987 ns/day, 4.009 hours/ns, 69.291 timesteps/s, 2.080 Matom-step/s
99.5% CPU use with 32 MPI tasks x 1 OpenMP threads

MPI task timing breakdown:
Section |  min time  |  avg time  |  max time  |%varavg| %total
---------------------------------------------------------------
Pair    | 64.47      | 71.734     | 78.317     |  46.3 | 49.71
Bond    | 1.5267     | 1.6893     | 1.8288     |   6.0 |  1.17
Kspace  | 50.443     | 57.032     | 65.072     |  52.3 | 39.52
Neigh   | 4.9277     | 5.057      | 5.1986     |   4.0 |  3.50
Comm    | 6.7997     | 8.0314     | 9.1293     |  22.0 |  5.56
Output  | 0.0010171  | 0.001415   | 0.0028811  |   0.9 |  0.00
Modify  | 0.04923    | 0.053719   | 0.066715   |   1.5 |  0.04
Other   |            | 0.7202     |            |       |  0.50

Nlocal:        938.125 ave        1003 max         881 min
Histogram: 3 1 2 6 5 7 3 2 2 1
Nghost:        10710.8 ave       10865 max       10590 min
Histogram: 4 5 4 3 2 3 5 2 2 2
Neighs:         512796 ave      569864 max      476485 min
Histogram: 4 7 4 3 3 2 4 1 2 2

Total # of neighbors = 16409467
Ave neighs/atom = 546.61782
Ave special neighs/atom = 10.787475
Neighbor list builds = 390
Dangerous builds = 0
unfix md2

# STEP 2 - MD for thermal conductivity
# 2a - impose nve
fix md3 all nve

# 2b - impose heat flux
fix hot all ehex 1 ${heat_flux} region hot
fix hot all ehex 1 0.02 region hot
fix cold all ehex 1 ${heat_flux_neg} region cold
fix cold all ehex 1 -0.02 region cold

# 2c - calculate thermal profile
compute ke all ke/atom
variable temp atom c_ke/(1.5*0.001987204)

compute layers all chunk/atom bin/1d z lower 0.05 units reduced
fix bins all ave/chunk ${nEvery} ${nRepeat} ${tLog} layers v_temp file Tprofile_z_ehex.dat
fix bins all ave/chunk 10 ${nRepeat} ${tLog} layers v_temp file Tprofile_z_ehex.dat
fix bins all ave/chunk 10 100 ${tLog} layers v_temp file Tprofile_z_ehex.dat
fix bins all ave/chunk 10 100 1000 layers v_temp file Tprofile_z_ehex.dat

variable tdiff equal c_Thot-c_Tcold
fix ave all ave/time ${nEvery} ${nRepeat} ${tLog} v_tdiff ave running start ${diffT_delay}
fix ave all ave/time 10 ${nRepeat} ${tLog} v_tdiff ave running start ${diffT_delay}
fix ave all ave/time 10 100 ${tLog} v_tdiff ave running start ${diffT_delay}
fix ave all ave/time 10 100 1000 v_tdiff ave running start ${diffT_delay}
fix ave all ave/time 10 100 1000 v_tdiff ave running start 20000

# pre define kappa
variable kappa_inst equal 0
variable kappa equal 0

# 2d - thermo out
# dump dump_tc all custom 1000 dump.tc_x_ehex.lammpstrj id type mol x y z ix iy iz vx vy vz
thermo_style custom step time v_kappa v_kappa_inst c_Thot c_Tcold v_tdiff f_ave temp press enthalpy etotal ke pe
WARNING: New thermo_style command, previous thermo_modify settings will be lost (src/output.cpp:904)
thermo_modify colname v_kappa kappa colname v_kappa_inst kappa_inst colname c_Thot Temp_hot colname c_Tcold Temp_cold colname v_tdiff dTemp_step colname f_ave dTemp
thermo_modify flush yes
thermo ${tLog}
thermo 1000

# 2e - prerun
run ${tPrerun}
run 10000
PPPM initialization ...
  using 12-bit tables for long-range coulomb (src/kspace.cpp:342)
  G vector (1/distance) = 0.25787445
  grid = 54 60 45
  stencil order = 5
  estimated absolute RMS force accuracy = 0.00038404524
  estimated relative force accuracy = 1.1565408e-06
  using double precision FFTW3
  3d grid and FFT values/proc = 12760 6480
Generated 21 of 21 mixed pair_coeff terms from arithmetic mixing rule
Per MPI rank memory allocation (min/avg/max) = 21.34 | 21.59 | 21.72 Mbytes
   Step          Time          kappa        kappa_inst      Temp_hot      Temp_cold      dTemp_step       dTemp           Temp          Press         Enthalpy        TotEng         KinEng         PotEng    
     10000   10000          0              0              292.48843      291.67543      0.81299496     0              299.2864      -387.29479      127875.8       129658.25      26780.428      102877.82    
     11000   11000          0              0              303.88375      295.91208      7.9716702      0              299.25679     -130.54007      129052.4       129653.19      26777.778      102875.41    
     12000   12000          0              0              304.12592      295.90744      8.2184791      0              298.81788      390.80248      131458.79      129660.2       26738.504      102921.69    
     13000   13000          0              0              308.95572      291.94953      17.006189      0              299.44705      384.36857      131421.58      129652.6       26794.802      102857.8     
     14000   14000          0              0              291.34553      298.33625     -6.9907228      0              298.40665     -260.14006      128460.25      129657.49      26701.706      102955.78    
     15000   15000          0              0              292.96037      287.41267      5.5476996      0              298.99519      181.61896      130486.19      129650.32      26754.37       102895.95    
     16000   16000          0              0              292.63623      291.58067      1.0555551      0              299.08064      133.13613      130264.54      129651.81      26762.016      102889.79    
     17000   17000          0              0              300.21953      294.87505      5.3444787      0              298.58653     -102.56857      129180.41      129652.46      26717.803      102934.66    
     18000   18000          0              0              297.6064       285.83584      11.770558      0              296.29124     -599.90525      126897.99      129658.94      26512.418      103146.52    
     19000   19000          0              0              297.55363      291.68891      5.8647245      0              299.21642     -31.353724      129509.74      129654.04      26774.165      102879.87    
     20000   20000          0              0              295.05819      291.06604      3.9921467      12.610357      298.45223      539.10727      132136.57      129655.43      26705.785      102949.65    
Loop time of 144.045 on 32 procs for 10000 steps with 30020 atoms

Performance: 5.998 ns/day, 4.001 hours/ns, 69.423 timesteps/s, 2.084 Matom-step/s
99.5% CPU use with 32 MPI tasks x 1 OpenMP threads

MPI task timing breakdown:
Section |  min time  |  avg time  |  max time  |%varavg| %total
---------------------------------------------------------------
Pair    | 63.644     | 70.769     | 77.715     |  45.0 | 49.13
Bond    | 1.5135     | 1.6881     | 1.8406     |   6.4 |  1.17
Kspace  | 50.294     | 57.15      | 65.039     |  50.6 | 39.67
Neigh   | 5.0617     | 5.1987     | 5.3432     |   4.0 |  3.61
Comm    | 6.8435     | 7.9569     | 9.1995     |  22.5 |  5.52
Output  | 0.0020104  | 0.0021337  | 0.0024254  |   0.2 |  0.00
Modify  | 0.68568    | 1.0395     | 1.434      |  17.5 |  0.72
Other   |            | 0.2419     |            |       |  0.17

Nlocal:        938.125 ave         992 max         876 min
Histogram: 2 2 1 1 8 6 4 4 1 3
Nghost:        10718.5 ave       10890 max       10569 min
Histogram: 2 3 5 1 5 6 6 1 1 2
Neighs:         512802 ave      558606 max      461181 min
Histogram: 1 2 4 4 5 2 4 5 1 4

Total # of neighbors = 16409662
Ave neighs/atom = 546.62432
Ave special neighs/atom = 10.787475
Neighbor list builds = 400
Dangerous builds = 0

# 2f - calc kappa
variable kappa_inst equal (${heat_flux}/(lx*ly)/2.0)*(lz/2.0)/v_tdiff*69478.5785
variable kappa_inst equal (0.02/(lx*ly)/2.0)*(lz/2.0)/v_tdiff*69478.5785
variable kappa equal (${heat_flux}/(lx*ly)/2.0)*(lz/2.0)/f_ave*69478.5785
variable kappa equal (0.02/(lx*ly)/2.0)*(lz/2.0)/f_ave*69478.5785

# 2g - md run for kappa calculation
# optional traj dump
if "${boolDump} == 1" then     "dump tc_dump all atom ${tDump} dump.tc_z.lammpstrj"
run ${tTCrun}
run 1500000
PPPM initialization ...
  using 12-bit tables for long-range coulomb (src/kspace.cpp:342)
  G vector (1/distance) = 0.25787445
  grid = 54 60 45
  stencil order = 5
  estimated absolute RMS force accuracy = 0.00038404524
  estimated relative force accuracy = 1.1565408e-06
  using double precision FFTW3
  3d grid and FFT values/proc = 12760 6480
Generated 21 of 21 mixed pair_coeff terms from arithmetic mixing rule
Per MPI rank memory allocation (min/avg/max) = 21.75 | 21.85 | 21.97 Mbytes
   Step          Time          kappa        kappa_inst      Temp_hot      Temp_cold      dTemp_step       dTemp           Temp          Press         Enthalpy        TotEng         KinEng         PotEng    
     20000   20000          0.27163659     0.86156408     295.04187      291.06604      3.9758324      12.610357      298.45223      539.10724      132136.57      129655.43      26705.785      102949.65    
     21000   21000          0.33658081     0.32667004     304.58079      294.09487      10.485915      10.177153      298.52582      151.23586      130358.62      129662.59      26712.37       102950.22    
     22000   22000          0.31860298     0.17012338     306.63893      286.50393      20.135001      10.75142       299.29447      36.491599      129826.32      129658.37      26781.149      102877.22    
     23000   23000          0.32047953     0.99534526     301.73925      298.2978       3.4414534      10.688465      298.92526     -149.24196      128972.64      129659.5       26748.113      102911.39    
     24000   24000          0.31184677     0.11872799     312.35895      283.50784      28.85111       10.984351      297.32892     -359.11161      128003.28      129656.02      26605.27       103050.75    
     25000   25000          0.29454454     0.13166052     306.7894       280.77223      26.017172      11.629597      299.87037      98.20973       130105.75      129653.76      26832.682      102821.08    
     26000   26000          0.28537257     0.2928929      300.99063      289.29545      11.695177      12.003377      299.8195       194.78627      130551.07      129654.6       26828.13       102826.47    
     27000   27000          0.26619782     0.1768456      304.08094      284.71131      19.369633      12.868003      298.39852     -265.14222      128438.94      129659.21      26700.979      102958.23    
     28000   28000          0.25376222     0.20660095     310.54463      293.96468      16.579955      13.498599      297.75417     -136.70408      129027.34      129656.5       26643.322      103013.18    
     29000   29000          0.24329774     0.156828       308.841        286.99902      21.841982      14.079187      299.39907     -3.8761162      129628.82      129646.66      26790.509      102856.15    
     30000   30000          0.23294972     0.38110311     297.85046      288.86225      8.988209       14.704608      299.34161      204.92489      130598.46      129655.33      26785.367      102869.97    
     31000   31000          0.22451935     0.17876244     316.55761      297.39567      19.161935      15.256745      297.52365      400.79848      131501.98      129657.38      26622.695      103034.69    
     32000   32000          0.22024655     0.16849869     320.01359      299.68445      20.329145      15.552726      299.03553      289.05703      130985.64      129655.32      26757.979      102897.34    
     33000   33000          0.21545076     0.12874795     314.11068      287.50494      26.605738      15.89892       299.1034       1043.6845      134458.38      129655.03      26764.053      102890.98    
     34000   34000          0.20817535     0.20880365     307.59568      291.19063      16.40505       16.454563      300.36882      84.052412      130039.1       129652.26      26877.284      102774.98    
     35000   35000          0.20221162     0.15888971     310.56249      289.00393      21.558566      16.939849      299.78394     -357.52965      128013.52      129658.98      26824.947      102834.03    
     36000   36000          0.19535356     0.20989566     310.7163       294.3966       16.319701      17.534538      299.01538     -175.92283      128843.76      129653.42      26756.177      102897.24    
     37000   37000          0.19034535     0.12869613     309.21237      282.59591      26.616451      17.995892      298.61299     -382.32333      127895.26      129654.83      26720.17       102934.66    
     38000   38000          0.1892165      0.11829853     311.17293      282.21708      28.95585       18.103254      297.32933      506.61694      131997.56      129665.96      26605.307      103060.65    
     39000   39000          0.18892223     0.30778135     308.82422      297.69478      11.129441      18.131452      298.33822     -93.99984       129226.23      129658.85      26695.584      102963.26    
     40000   40000          0.18832681     0.17363661     306.84308      287.11548      19.727605      18.188777      296.94295     -239.31109      128560.18      129661.56      26570.734      103090.83    
     41000   41000          0.1870155      0.20388694     300.57746      283.77681      16.800656      18.316312      300.4111       498.48365      131943.93      129649.76      26881.067      102768.69    
     42000   42000          0.1865148      0.12033512     315.46804      287.00225      28.46579       18.365483      298.08527     -131.4195       129047.72      129652.55      26672.95       102979.61    
     43000   43000          0.18562213     0.13995164     309.60042      285.12457      24.475844      18.453804      299.34639     -439.83584      127623.44      129647.7       26785.795      102861.9     
     44000   44000          0.1834938      0.12440233     311.54201      284.00688      27.535131      18.667848      300.23027     -505.33085      127324.44      129650.13      26864.886      102785.24    
     45000   45000          0.18105582     0.10203424     319.53882      285.9674       33.57142       18.919217      297.84243      265.83974      130875.55      129652.07      26651.219      103000.85    
     46000   46000          0.17964013     0.16687833     307.57533      287.04879      20.526538      19.068314      297.75052     -218.52199      128647.84      129653.55      26642.996      103010.55    
     47000   47000          0.17782909     0.13117966     303.42761      277.31507      26.112542      19.262509      299.73243      95.755794      130093.87      129653.17      26820.338      102832.83    
     48000   48000          0.17705155     0.150929       318.52834      295.83267      22.695666      19.347101      298.20093      175.41053      130459.06      129651.77      26683.299      102968.47    
     49000   49000          0.17689142     0.24422948     303.62868      289.60321      14.025475      19.364615      297.82671     -404.70927      127791.28      129653.88      26649.813      103004.06    
     50000   50000          0.17467148     0.14613331     307.84617      284.4057       23.440476      19.610725      299.52174      86.134457      130055.43      129659.01      26801.486      102857.53    
     51000   51000          0.17283337     0.14774046     309.47064      286.28515      23.185486      19.819288      299.33036      349.47984      131262.49      129654.08      26784.361      102869.72    
     52000   52000          0.17131717     0.13394054     312.76441      287.19012      25.574291      19.994693      299.0371      -277.07867      128378.48      129653.68      26758.12       102895.56    
     53000   53000          0.16919366     0.15051823     312.74536      289.98776      22.757604      20.245643      300.01236      320.64648      131126.41      129650.7       26845.387      102805.31    
     54000   54000          0.16839001     0.20890573     301.89799      285.50095      16.397034      20.342266      299.47076      941.83247      133988.28      129653.68      26796.924      102856.75    
     55000   55000          0.16723033     0.11858986     305.36944      276.48472      28.884714      20.483332      297.2527      -17.11122       129575.02      129653.77      26598.45       103055.32    
     56000   56000          0.16687612     0.26384476     299.65         286.66723      12.982764      20.52681       297.94863     -384.88959      127886.63      129658.01      26660.722      102997.29    
     57000   57000          0.16689121     0.22004653     302.52262      286.95575      15.566864      20.524954      297.80556     -171.72768      128869.66      129660         26647.92       103012.08    
     58000   58000          0.16665262     0.22303668     310.80364      295.44548      15.358166      20.554339      298.1657      -140.7919       129010.32      129658.29      26680.147      102978.14    
     59000   59000          0.16603223     0.19768509     306.56839      289.24066      17.327732      20.631141      298.57764     -212.23607      128674.89      129651.67      26717.007      102934.66    
     60000   60000          0.16566606     0.19542616     309.08341      291.55539      17.528024      20.676742      297.81688     -556.92284      127095.49      129658.62      26648.934      103009.69    
     61000   61000          0.16646484     0.29412165     307.45282      295.80651      11.646318      20.577525      299.69218      244.91764      130781.91      129654.73      26816.737      102837.99    
     62000   62000          0.1668979      0.11573477     313.45077      283.85349      29.597279      20.524132      299.21073      307.98698      131075.44      129657.99      26773.656      102884.34    
     63000   63000          0.16677841     0.15168997     305.45759      282.87578      22.581812      20.538835      296.99205     -181.91925      128823.72      129660.97      26575.127      103085.84    
     64000   64000          0.16715142     1.4745076      309.2657       306.9426       2.3231038      20.493002      297.91766     -612.79957      126834.69      129654.98      26657.951      102997.03    
     65000   65000          0.1686046      0.12656569     316.99796      289.93349      27.064479      20.316375      298.9855      -31.947278      129511.1       129658.13      26753.503      102904.63    
     66000   66000          0.17005013     0.21854407     304.69088      289.01699      15.673884      20.143674      298.30451      406.96849      131529.19      129656.19      26692.567      102963.63    
     67000   67000          0.17068127     0.22915631     305.31926      290.37123      14.948025      20.069187      298.36623     -605.69244      126872.61      129660.19      26698.09       102962.1     
     68000   68000          0.17175085     0.50762561     308.7346       301.98665      6.7479542      19.944206      298.83589      139.03002      130295.03      129655.17      26740.115      102915.05    
     69000   69000          0.17256338     0.17478165     311.55479      291.95643      19.598364      19.850297      299.27672      332.73718      131186.02      129654.66      26779.561      102875.1     
     70000   70000          0.17264585     0.24904404     303.64767      289.89334      13.754332      19.840815      299.10985      587.04239      132354.11      129652.36      26764.629      102887.73    
     71000   71000          0.17292637     0.29518889     311.53808      299.93387      11.604212      19.80863       300.26548      108.62978      130156.58      129656.63      26868.037      102788.59    
     72000   72000          0.17273857     0.44087042     299.78706      292.01735      7.7697078      19.830165      299.16107     -557.65858      127090.01      129656.52      26769.213      102887.31    
     73000   73000          0.17363878     0.14527425     314.31815      290.73906      23.579088      19.727358      298.1898      -372.75714      127944.04      129659.58      26682.303      102977.28    
     74000   74000          0.1746144      0.89154189     306.25502      302.41288      3.8421463      19.617135      297.57748     -5.2918842      129630.87      129655.22      26627.512      103027.71    
     75000   75000          0.17598307     0.48008862     300.02915      292.89414      7.1350042      19.464568      298.56299     -65.885319      129356.02      129659.25      26715.696      102943.55    
     76000   76000          0.17676248     0.19772464     307.19133      289.86706      17.324266      19.378741      299.69445     -95.654551      129207.94      129648.17      26816.94       102831.23    
     77000   77000          0.17732078     0.12632493     313.80763      286.69157      27.116059      19.317727      298.41392     -334.59747      128118.07      129657.99      26702.357      102955.64    
     78000   78000          0.1781435      0.32350975     308.5323       297.94395      10.58835       19.228512      299.12767     -358.81443      128004.01      129655.38      26766.224      102889.16    
     79000   79000          0.1790612      0.60208469     302.20384      296.51455      5.6892899      19.129964      297.94267     -591.28325      126940.62      129661.89      26660.19       103001.7     
     80000   80000          0.17983235     0.166893       310.18787      289.66314      20.524734      19.047931      297.48549     -259.73402      128466.67      129662.04      26619.28       103042.76    
     81000   81000          0.17984515     0.17344071     313.06325      293.31337      19.749887      19.046576      299.16137      379.10164      131403.43      129658.69      26769.239      102889.45    
     82000   82000          0.17993205     0.29203232     297.86031      286.13066      11.729641      19.037378      296.81847     -195.78831      128759.42      129660.49      26559.594      103100.9     
     83000   83000          0.18002193     0.48604038     305.69387      298.64624      7.0476333      19.027873      300.51646      254.47732      130825.71      129654.53      26890.494      102764.03    
     84000   84000          0.18094974     0.12047287     321.82362      293.39037      28.433242      18.930308      300.23706     -91.564484      129227.63      129649.03      26865.494      102783.54    
     85000   85000          0.18165607     0.31128309     304.55261      293.54837      11.004242      18.856702      297.62956      371.97054      131373.89      129661.97      26632.172      103029.8     
     86000   86000          0.1813856      0.25525827     307.92537      294.50588      13.419484      18.88482       299.52888      488.572        131903.38      129654.82      26802.125      102852.7     
     87000   87000          0.18121009     0.20474501     312.66151      295.93126      16.730246      18.90311       298.94859     -288.22535      128328.66      129655.17      26750.2        102904.97    
     88000   88000          0.18036381     0.18991594     312.39794      294.36136      18.036582      18.991805      299.34426     -207.18029      128700.92      129654.43      26785.605      102868.82    
     89000   89000          0.17962665     0.10444255     312.45109      279.65378      32.797307      19.069744      297.47625     -238.44567      128558.79      129656.19      26618.453      103037.73    
     90000   90000          0.17907874     0.84881133     298.64827      294.61271      4.0355663      19.128091      298.52118     -148.22789      128971.91      129654.1       26711.955      102942.14    
     91000   91000          0.17853147     0.10430483     322.12741      289.28679      32.840612      19.186726      299.38927     -111.58369      129141.63      129655.17      26789.632      102865.54    
     92000   92000          0.17739592     0.16224484     316.67811      295.56536      21.112748      19.309544      297.56997      107.50823      130152.95      129658.16      26626.84       103031.32    
     93000   93000          0.17651201     0.11188395     311.3198       280.70384      30.615959      19.40624       298.50267      342.0126       131229.28      129655.23      26710.299      102944.93    
     94000   94000          0.17533991     0.11500111     315.99168      286.20559      29.786097      19.535965      298.76652     -238.34261      128557.58      129654.51      26733.908      102920.6     
     95000   95000          0.17413063     0.12725693     314.85289      287.93542      26.917468      19.671635      297.75926      231.27457      130723.77      129659.37      26643.778      103015.59    
     96000   96000          0.17316986     0.11416438     315.80752      285.80311      30.004405      19.780777      299.52156     -148.04725      128972.15      129653.51      26801.47       102852.04    
     97000   97000          0.17281033     0.22222466     309.52496      294.11067      15.414286      19.82193       299.54761      190.08448      130533.45      129658.62      26803.801      102854.82    
     98000   98000          0.17277471     0.15177769     304.55092      281.98216      22.56876       19.826017      299.67587      428.07077      131625         129654.89      26815.278      102839.61    
     99000   99000          0.17236045     0.1256854      307.92359      280.66955      27.254035      19.873668      297.60618      331.39844      131185.29      129660.09      26630.08       103030.01    
    100000   100000         0.17143182     0.11699652     318.08433      288.80624      29.278087      19.981322      299.41978     -0.61553534     129648.87      129651.71      26792.362      102859.35    
    101000   101000         0.17106403     0.090363556    315.24737      277.34011      37.907255      20.024282      299.57726      895.28621      133781.6       129661.22      26806.454      102854.76    
    102000   102000         0.17037177     0.16541729     310.00237      289.29453      20.707837      20.105645      298.61022      72.656037      129987.69      129653.31      26719.922      102933.38    
    103000   103000         0.17005103     0.18593381     302.61897      284.1961       18.42287       20.143567      298.57147     -59.754274      129382.09      129657.1       26716.455      102940.64    
    104000   104000         0.16996641     0.26063533     313.51347      300.37084      13.142633      20.153596      300.02756      550.73622      132184.69      129650.03      26846.747      102803.28    
    105000   105000         0.1699448      0.13266985     317.68833      291.8691       25.819238      20.156159      299.64377      253.68639      130822.96      129655.42      26812.406      102843.01    
    106000   106000         0.16989902     0.1950119      304.99095      287.42569      17.565258      20.16159       296.77593      260.58062      130855.47      129656.2       26555.788      103100.41    
    107000   107000         0.17001534     0.35265125     313.07498      303.3616       9.7133764      20.147796      300.43991      569.13132      132271.82      129652.51      26883.644      102768.86    
    108000   108000         0.17011379     0.2025278      305.82803      288.91463      16.913403      20.136136      297.72161      237.61623      130756.33      129662.74      26640.409      103022.33    
    109000   109000         0.1704637      0.11263065     316.71428      286.3013       30.412987      20.094803      299.81214      415.36689      131567.42      129655.78      26827.471      102828.3     
    110000   110000         0.17014996     0.1742832      306.93918      287.28477      19.654415      20.131855      296.98771     -261.62674      128461.01      129665.1       26574.739      103090.36    
    111000   111000         0.17018514     0.16189622     309.57241      288.4142       21.158211      20.127693      298.88424     -186.82476      128792.2       129652.03      26744.442      102907.59    
    112000   112000         0.17021362     0.15078033     311.60157      288.88353      22.718045      20.124326      299.70684     -329.64767      128135.83      129652.97      26818.049      102834.92    
    113000   113000         0.17004465     0.14621179     317.16798      293.74009      23.427894      20.144323      299.29854      154.29321      130364.99      129654.88      26781.514      102873.37    
    114000   114000         0.16989107     0.12417058     316.50787      288.92135      27.586521      20.162534      299.35154     -375.0096       127928.72      129654.63      26786.256      102868.37    
    115000   115000         0.16956981     0.18045565     307.40825      288.42611      18.98214       20.200733      300.39904     -279.14337      128369.34      129654.05      26879.987      102774.06    
    116000   116000         0.16938493     0.23335876     307.21284      292.53401      14.678834      20.222781      297.83323      127.03739      130242.46      129657.8       26650.396      103007.4     
    117000   117000         0.16914103     0.15927493     313.17684      291.67041      21.506425      20.251942      299.71369     -274.17149      128390.63      129652.45      26818.662      102833.79    
    118000   118000         0.16879458     0.13425325     308.63332      283.11859      25.514723      20.293509      298.24356     -456.58608      127554.37      129655.72      26687.113      102968.6     
    119000   119000         0.16857442     0.14072623     316.09555      291.75443      24.341122      20.320012      298.74551      301.17002      131041.5       129655.43      26732.028      102923.4     
    120000   120000         0.16844086     0.1240401      317.83712      290.22158      27.61554       20.336124      299.0618       542.75691      132152.81      129654.88      26760.33       102894.55    
    121000   121000         0.16824306     0.083151575    324.47783      283.28277      41.195063      20.360033      299.71201      178.33943      130470.17      129649.39      26818.511      102830.88    
    122000   122000         0.16797212     0.14164312     311.04981      286.86626      24.183556      20.392875      297.53856      115.44532      130188.81      129657.49      26624.029      103033.47    
    123000   123000         0.16792201     0.22376701     310.78316      295.47512      15.30804       20.398959      299.90032      318.9225       131121.23      129653.45      26835.361      102818.09    
    124000   124000         0.16812388     0.33782642     302.86875      292.72913      10.139628      20.374467      298.91849      288.72622      130982.69      129653.88      26747.507      102906.38    
    125000   125000         0.16810531     0.14309817     313.09202      289.15436      23.937653      20.376717      299.33884      122.94889      130223.45      129657.6       26785.12       102872.48    
    126000   126000         0.16809721     0.19788707     309.67475      292.36471      17.310047      20.377699      298.29316      755.52741      133133.38      129656.21      26691.552      102964.66    
    127000   127000         0.1677756      0.10516728     309.92454      277.35324      32.571293      20.416761      298.82501      310.57983      131087.78      129658.4       26739.142      102919.26    
    128000   128000         0.16769616     0.13355753     312.29013      286.6425       25.647632      20.426433      299.89968      4.5324787      129678.83      129657.97      26835.305      102822.67    
    129000   129000         0.16802626     0.54310153     294.96978      288.66261      6.3071712      20.386303      298.38818      754.07825      133123.51      129653.01      26700.054      102952.96    
    130000   130000         0.16813659     0.13531967     316.32999      291.01635      25.313648      20.372926      298.7318       299.8384       131035.16      129655.22      26730.801      102924.42    
    131000   131000         0.1682455      0.1238524      313.9923       286.33491      27.657391      20.359739      298.26372     -59.472067      129385.01      129658.72      26688.917      102969.8     
    132000   132000         0.16827438     0.12313939     317.81638      289.99884      27.817535      20.356245      300.58822      255.67404      130830.06      129653.37      26896.916      102756.46    
    133000   133000         0.16801049     0.2057674      310.36754      293.72042      16.647119      20.388217      298.80764      556.918        132219.76      129656.66      26737.588      102919.07    
    134000   134000         0.16785151     0.18945891     305.54919      287.4691       18.080091      20.407528      300.7205       378.9239       131396.07      129652.15      26908.752      102743.39    
    135000   135000         0.16796846     0.139519       309.6049       285.05316      24.551741      20.393319      299.7474       49.451368      129877.79      129650.2       26821.678      102828.52    
    136000   136000         0.16811375     0.19746266     303.48342      286.13617      17.347251      20.375694      299.04219     -556.28971      127099.55      129659.77      26758.575      102901.19    
    137000   137000         0.16799211     0.15183229     307.4431       284.88245      22.560645      20.390447      297.62833     -303.93189      128259.24      129658.02      26632.062      103025.96    
    138000   138000         0.16812357     0.13044973     309.71739      283.45874      26.258654      20.374504      298.82658     -6.4128161      129627.29      129656.81      26739.283      102917.53    
    139000   139000         0.16822487     0.24869083     304.94157      291.1677       13.773867      20.362235      299.73031     -609.04833      126850.41      129653.43      26820.149      102833.28    
    140000   140000         0.16856042     0.1665744      306.57408      286.01009      20.56399       20.3217        297.46105     -161.14472      128914.28      129655.92      26617.094      103038.83    
    141000   141000         0.16888586     0.51998927     298.57817      291.99066      6.5875097      20.282541      298.23607      85.765972      130056.59      129661.87      26686.443      102975.43    
    142000   142000         0.16924358     0.21214556     305.27731      289.13069      16.146623      20.239671      298.99263     -97.208606      129206.14      129653.52      26754.141      102899.38    
    143000   143000         0.16916156     0.091846656    308.91896      271.62381      37.295145      20.249484      297.98807      3.1531879      129671.62      129657.1       26664.252      102992.85    
    144000   144000         0.16900816     0.18411475     308.39406      289.78918      18.604889      20.267864      299.89445      51.30877       129884.61      129648.48      26834.837      102813.64    
    145000   145000         0.16893098     0.13060898     312.99957      286.77294      26.226637      20.277124      296.12507     -673.17697      126558         129656.16      26497.549      103158.61    
    146000   146000         0.16943983     0.45726022     299.16417      291.67296      7.4912144      20.216229      298.68988      43.898604      129860.04      129658         26727.05       102930.95    
    147000   147000         0.16959573     0.093176104    316.27155      279.50854      36.763013      20.197645      300.78989     -17.260119      129571.36      129650.8       26914.961      102735.84    
    148000   148000         0.1698052      0.15819033     309.55068      287.8968       21.653879      20.172729      297.63392      233.91993      130731.88      129655.31      26632.562      103022.75    
    149000   149000         0.16988829     0.11175546     314.69004      284.03888      30.651159      20.162864      297.75973     -88.108598      129258.93      129664.43      26643.819      103020.61    
    150000   150000         0.17010587     0.36034394     297.68106      288.17505      9.5060134      20.137074      299.82501      382.65713      131415.96      129654.86      26828.622      102826.24    
    151000   151000         0.1704592      1.5738869      291.23174      289.05532      2.176417       20.095333      298.41912     -374.4249       127934.48      129657.7       26702.823      102954.88    
    152000   152000         0.17089455     0.33143608     299.29199      288.95686      10.335128      20.04414       299.28827      109.12402      130158.82      129656.6       26780.595      102876       
    153000   153000         0.17141706     0.68217036     294.89774      289.87637      5.0213767      19.983042      299.78773     -189.30553      128780.83      129652.08      26825.287      102826.79    
    154000   154000         0.17229591     0.54933902     304.92505      298.6895       6.2355562      19.881112      300.65696      147.51211      130333.61      129654.71      26903.067      102751.65    
    155000   155000         0.17323613     0.27753099     300.67632      288.33379      12.342529      19.77321       298.64344      194.68123      130551.19      129655.2       26722.895      102932.31    
    156000   156000         0.17365226     0.22017164     300.90903      285.35102      15.558018      19.725826      299.35891      109.5717       130154.28      129650         26786.916      102863.08    
    157000   157000         0.17382836     0.38195139     300.66546      291.69721      8.9682468      19.705843      298.54173      422.46995      131601.71      129657.37      26713.794      102943.58    
    158000   158000         0.17419882     0.11843749     313.67541      284.75353      28.921875      19.663936      298.24603     -82.765837      129277.59      129658.5       26687.334      102971.17    
    159000   159000         0.17470384     0.232721       310.81604      296.09698      14.71906       19.607092      298.61714     -44.548886      129448.78      129653.81      26720.542      102933.27    
    160000   160000         0.17518576    -1.8457281      303.69648      305.55235     -1.8558715      19.553155      299.63611     -79.347966      129287.04      129652.23      26811.719      102840.51    
    161000   161000         0.17554651     0.1693897      310.06931      289.8471       20.222212      19.512973      297.88012      311.00736      131084.89      129653.54      26654.592      102998.95    
    162000   162000         0.17583798     0.15515962     310.42052      288.34368      22.076841      19.480628      298.14896      726.84654      133007.07      129661.9       26678.648      102983.25    
    163000   163000         0.17615391     0.19512484     300.44347      282.88838      17.555091      19.44569       298.01007      329.15884      131176.17      129661.28      26666.22       102995.06    
    164000   164000         0.17626045     0.52988358     301.83895      295.37444      6.4645037      19.433936      298.69112     -313.60437      128219.3       129662.61      26727.161      102935.44    
    165000   165000         0.17674411     0.33327323     301.69627      291.41811      10.278156      19.380755      299.82527     -128.59582      129063.08      129654.92      26828.646      102826.28    
    166000   166000         0.17718289     0.21718432     309.41436      293.64235      15.772015      19.332761      299.06609      300.33505      131035.86      129653.63      26760.714      102892.91    
    167000   167000         0.17761978     0.16497059     310.22916      289.46525      20.76391       19.285208      299.04472     -265.00649      128436.52      129656.17      26758.801      102897.36    
    168000   168000         0.17772353     0.15137829     315.80615      293.17784      22.628306      19.27395       300.43051      84.004632      130037.54      129650.93      26882.803      102768.13    
    169000   169000         0.1780267      0.29209073     306.36786      294.64057      11.727296      19.241128      298.92057     -87.430642      129255.54      129657.92      26747.693      102910.23    
    170000   170000         0.1784         0.25459586     301.65366      288.19926      13.454399      19.200865      298.31593      796.01231      133318.19      129654.69      26693.588      102961.11    
    171000   171000         0.17878336     0.23331312     310.92445      296.24274      14.681705      19.159693      297.66722      76.993817      130010.4       129656.05      26635.542      103020.5     
    172000   172000         0.17908733     0.15909141     311.00026      289.46903      21.531233      19.127174      298.9051      -121.5692       129092.02      129651.52      26746.308      102905.21    
    173000   173000         0.17930161     0.14040609     306.24296      281.84634      24.396623      19.104315      297.61864      722.17608      132988.52      129664.85      26631.195      103033.65    
    174000   174000         0.17970534     0.40643527     303.95055      295.52255      8.4279948      19.061395      296.34772     -263.13526      128445.45      129656.47      26517.472      103139       
    175000   175000         0.17998774     0.26716701     307.85936      295.03803      12.821323      19.031487      299.42371      286.6391       130967.07      129647.87      26792.714      102855.15    
    176000   176000         0.18023173     0.47430282     307.03428      299.81224      7.2220408      19.005723      298.96752      573.53242      132291.85      129652.27      26751.893      102900.38    
    177000   177000         0.18053693     0.36951653     302.88318      293.61314      9.2700436      18.973594      298.0557      -308.93563      128228.29      129650.11      26670.303      102979.81    
    178000   178000         0.18107737     0.23753502     305.41953      290.99877      14.420755      18.916966      296.83146      510.95105      132017.17      129665.62      26560.757      103104.86    
    179000   179000         0.1813983      5.5568199      300.14537      299.52893      0.6164379      18.883498      298.8732      -584.4541       126968.62      129658.46      26743.454      102915       
    180000   180000         0.1820357      1.1388531      307.29795      304.29016      3.0077931      18.817377      299.04165     -618.34721      126811.84      129657.67      26758.527      102899.14    
    181000   181000         0.18255172     1.2547772      300.46176      297.73184      2.7299144      18.764185      299.28128     -772.52699      126098.1       129653.51      26779.969      102873.54    
    182000   182000         0.18278391     0.25622754     301.08779      287.71907      13.36872       18.740349      297.0208      -675.1117       126551.13      129658.2       26577.699      103080.5     
    183000   183000         0.1829064      0.26727598     305.9299       293.11381      12.816095      18.7278        298.72018     -208.2426       128695.82      129654.21      26729.761      102924.45    
    184000   184000         0.18333762     0.34046877     305.59155      295.53061      10.060936      18.68375       299.01471     -113.2996       129131.41      129652.85      26756.116      102896.73    
    185000   185000         0.18351354     0.18749407     304.6889       286.41934      18.269561      18.66584       299.52477     -313.16702      128216.11      129657.4       26801.757      102855.64    
    186000   186000         0.18359214     0.14721977     315.52538      292.2579       23.267489      18.657849      299.60944      347.06793      131249.93      129652.61      26809.334      102843.28    
    187000   187000         0.18388199     0.10999        316.91796      285.77482      31.143142      18.628438      299.15185      377.42893      131390.33      129653.29      26768.388      102884.9     
    188000   188000         0.18417396     0.15349781     308.48287      286.16702      22.315852      18.598907      297.93878      442.90864      131699.43      129661.03      26659.841      103001.19    
    189000   189000         0.18424106     0.1613937      310.35579      289.1317       21.224089      18.592133      299.10914     -287.33297      128337.25      129659.65      26764.566      102895.08    
    190000   190000         0.18440813     0.14112152     311.70189      287.42895      24.272941      18.575289      297.47319     -210.07882      128690.29      129657.14      26618.18       103038.96    
    191000   191000         0.18442088     0.60046899     303.47768      297.77308      5.7045983      18.574005      298.60734      193.62287      130546.8       129655.69      26719.664      102936.03    
    192000   192000         0.18444462     0.15087748     319.00306      296.29964      22.703417      18.571614      300.44601     -573.09174      127016.1       129653.64      26884.191      102769.45    
    193000   193000         0.18475607     0.39020717     301.0773       292.2988       8.7785019      18.540308      298.16116     -229.79832      128597.93      129655.53      26679.74       102975.79    
    194000   194000         0.18502111     0.29953195     316.80958      305.37362      11.435957      18.513749      298.55074      77.258685      130012.13      129656.57      26714.6        102941.97    
    195000   195000         0.1853236      0.47455917     304.66468      297.44654      7.2181396      18.48353       298.97396     -796.30847      125991.78      129656.64      26752.47       102904.17    
    196000   196000         0.18525759     0.13077177     310.4259       284.23191      26.193989      18.490116      300.21799      29.833702      129787.76      129650.46      26863.787      102786.67    
    197000   197000         0.18536801     0.32577567     307.72307      297.20837      10.514703      18.479102      296.97523     -317.22815      128200.16      129660.14      26573.622      103086.52    
    198000   198000         0.18557942     0.24155805     306.36087      292.18029      14.180584      18.45805       297.50223      23.343797      129765.87      129658.43      26620.779      103037.66    
    199000   199000         0.18574676     0.23149735     295.87297      281.07611      14.796862      18.441422      296.18843      123.014        130227.25      129661.1       26503.218      103157.88    
    200000   200000         0.18585841     0.25973444     303.09302      289.9048       13.188218      18.430344      299.36392     -321.62149      128171.42      129651.62      26787.364      102864.26    
    201000   201000         0.18590887     0.14184878     307.48887      283.34037      24.148494      18.425341      298.97144     -710.43571      126387.31      129656.95      26752.244      102904.7     
    202000   202000         0.18559195     0.13310448     312.55797      286.82304      25.734929      18.456805      298.1383      -92.014469      129233.85      129657.33      26677.694      102979.64    
    203000   203000         0.18560827     0.2034343      310.66071      293.82267      16.838038      18.455182      297.75963     -172.74946      128863.65      129658.7       26643.81       103014.89    
    204000   204000         0.18552647     0.13096787     313.85094      287.69618      26.154769      18.463319      300.4395      -214.05938      128667.93      129653.1       26883.608      102769.49    
    205000   205000         0.18571826     0.27745304     300.91023      288.56423      12.345997      18.444252      300.43303      643.46167      132618.36      129656.95      26883.029      102773.92    
    206000   206000         0.18579365     0.13557646     314.14605      288.88035      25.265701      18.436768      300.11373     -171.60615      128864.32      129654.11      26854.458      102799.65    
    207000   207000         0.18549582     0.14495909     306.32395      282.69359      23.630353      18.46637       296.50861     -232.3002       128585.99      129655.11      26531.869      103123.24    
    208000   208000         0.18547232     0.34928593     300.15457      290.34761      9.8069634      18.468709      298.25732      310.95176      131090.93      129659.84      26688.345      102971.49    
    209000   209000         0.18557176     0.12451519     313.23889      285.72872      27.510172      18.458813      298.60492      366.86735      131346.64      129658.21      26719.448      102938.76    
    210000   210000         0.18544067     0.16461744     308.7598       287.95135      20.808453      18.471862      298.00102     -58.410289      129388.16      129656.98      26665.41       102991.57    
    211000   211000         0.18516984     0.27942075     310.72843      298.46938      12.259055      18.498878      299.9843       653.05725      132661.9       129656.33      26842.876      102813.46    
    212000   212000         0.18489744     0.28439881     305.26523      293.22075      12.044475      18.526132      298.58782     -109.31269      129156.58      129659.67      26717.918      102941.75    
    213000   213000         0.18459637     0.15025479     305.06099      282.26349      22.797504      18.556347      298.4602       142.9226       130316.54      129658.77      26706.498      102952.27    
    214000   214000         0.18437637     0.11089171     317.28599      286.39608      30.889905      18.578489      300.78257      361.80229      131315.52      129650.39      26914.306      102736.09    
    215000   215000         0.18428222     0.37835204     308.08021      299.02664      9.0535639      18.587981      297.54726     -120.43933      129100.41      129654.71      26624.808      103029.9     
    216000   216000         0.18425244     0.16388165     307.81567      286.91379      20.901879      18.590985      299.61129      475.30061      131839.25      129651.77      26809.499      102842.27    
    217000   217000         0.1841538      0.17160564     313.3965       293.43542      19.961083      18.600943      300.38816      185.92825      130511.06      129655.36      26879.014      102776.34    
    218000   218000         0.18387231     0.10764299     308.35916      276.53698      31.822179      18.62942       298.2045      -352.90977      128033.19      129657.39      26683.618      102973.77    
    219000   219000         0.1837221      0.88122745     298.06821      294.1811       3.8871172      18.64465       299.33467      289.83214      130990.49      129656.59      26784.747      102871.85    
    220000   220000         0.18372581     0.091166991    316.85336      279.28017      37.573186      18.644274      297.40358      314.25929      131104.91      129658.59      26611.951      103046.64    
    221000   221000         0.1836584      0.12033198     306.78907      278.32254      28.466534      18.651117      298.0236       303.78673      131056.56      129658.44      26667.431      102991.01    
    222000   222000         0.18355345     0.14835053     310.16058      287.07044      23.090139      18.661782      298.67959      88.913149      130060.64      129651.43      26726.129      102925.31    
    223000   223000         0.18348213     0.1322823      307.48954      281.59465      25.894881      18.669036      298.52171     -88.114475      129251.29      129656.82      26712.002      102944.82    
    224000   224000         0.18341589     0.115688       308.37826      278.76901      29.609245      18.675777      298.70121      39.449557      129835.75      129654.19      26728.064      102926.12    
    225000   225000         0.18338784     0.20125091     298.49107      281.47036      17.020715      18.678634      296.54644     -361.05163      127998.58      129660.24      26535.254      103124.99    
    226000   226000         0.18346025     0.12544148     317.84452      290.53749      27.30703       18.671262      299.87966     -288.20621      128329.33      129655.74      26833.513      102822.23    
    227000   227000         0.18331459     0.17424221     306.67233      287.01329      19.659039      18.686098      298.72424     -215.24708      128661.19      129651.82      26730.124      102921.69    
    228000   228000         0.18352235     0.40370871     307.77877      299.29386      8.4849156      18.664944      299.36588     -263.77219      128441.1       129655.06      26787.54       102867.52    
    229000   229000         0.18356732     0.1235646      314.07134      286.34953      27.721809      18.660372      298.86244      116.2796       130188.7       129653.55      26742.492      102911.06    
    230000   230000         0.18336062     0.12121457     312.23757      283.97831      28.259263      18.681407      299.55722      25.984582      129778.16      129658.57      26804.661      102853.91    
    231000   231000         0.18330415     0.16975623     308.71403      288.53548      20.178549      18.687162      299.45696     -308.61398      128237.04      129657.38      26795.689      102861.69    
    232000   232000         0.18315123     0.15968668     311.8696       290.41863      21.450971      18.702765      298.6115       310.11371      131088.17      129660.93      26720.036      102940.89    
    233000   233000         0.18300666     0.15722505     306.58097      284.79415      21.786823      18.71754       298.38449      224.11988      130681.38      129649.91      26699.724      102950.18    
    234000   234000         0.18306018     0.13508853     321.11213      295.75517      25.356959      18.712067      299.05849     -52.550658      129417.16      129659.01      26760.034      102898.98    
    235000   235000         0.18308374     0.09224165     320.22434      283.0889       37.135441      18.709659      297.69113     -506.50913      127322.14      129653.25      26637.681      103015.57    
    236000   236000         0.18299633     0.16249212     307.25477      286.17415      21.080618      18.718596      299.1735      -242.97235      128535.03      129653.26      26770.325      102882.94    
    237000   237000         0.18319117     0.11434369     317.45691      287.49955      29.957354      18.698687      300.43366     -351.74562      128035.24      129654.08      26883.086      102770.99    
    238000   238000         0.18341765     0.159912       318.51989      297.09914      21.420746      18.675599      298.98908      297.84407      131025.14      129654.37      26753.823      102900.55    
    239000   239000         0.18344086     0.26316146     305.14027      292.1238       13.016474      18.673235      299.05289      877.83032      133699.14      129659.1       26759.533      102899.57    
    240000   240000         0.18339494     0.2573023      301.94201      288.62913      13.312879      18.677911      299.6162       542.4591       132147.34      129650.78      26809.938      102840.84    
    241000   241000         0.18329068     0.13757928     308.55868      283.66078      24.897895      18.688535      298.0187      -369.82238      127957.18      129659.21      26666.993      102992.22    
    242000   242000         0.18295697     0.10271889     305.80228      272.45462      33.347659      18.722623      298.74088      77.371064      130012.31      129656.23      26731.613      102924.62    
    243000   243000         0.18253558     0.36651387     298.94673      289.60074      9.3459884      18.765845      299.62331     -299.31734      128282.57      129660.12      26810.574      102849.55    
    244000   244000         0.18243765     0.39621656     302.89247      294.24711      8.6453588      18.775918      298.43812      265.53737      130886.13      129664.04      26704.523      102959.52    
    245000   245000         0.1824906      0.18635091     312.93354      294.55191      18.381634      18.77047       298.3519       372.06975      131372.45      129660.08      26696.808      102963.27    
    246000   246000         0.18250253     0.36750596     302.75514      293.43438      9.3207586      18.769243      297.80729     -431.8703       127672.52      129660.12      26648.075      103012.04    
    247000   247000         0.18253085     0.13648168     308.09093      282.99281      25.098126      18.766331      298.12904      112.00026      130173.95      129658.49      26676.866      102981.62    
    248000   248000         0.18262664     0.30753812     306.56591      295.42767      11.138243      18.756488      298.92962     -65.900293      129351.9       129655.19      26748.503      102906.69    
    249000   249000         0.18260752     0.16602893     309.13906      288.50751      20.631551      18.758452      299.42899     -329.79106      128134.59      129652.39      26793.187      102859.2     
    250000   250000         0.1826233      0.19684303     322.27695      304.87509      17.401858      18.756831      299.00276     -385.25521      127883.07      129656.13      26755.047      102901.09    
    251000   251000         0.18268657     0.15637142     310.86176      288.95601      21.905757      18.750335      298.16812      496.26608      131940.44      129656.48      26680.362      102976.11    
    252000   252000         0.18285249     0.24248029     311.6382       297.51155      14.126651      18.733321      299.42275      461.07847      131775.48      129653.46      26792.628      102860.83    
    253000   253000         0.18294659     0.14115225     319.61988      295.35223      24.267657      18.723686      299.69257     -170.70473      128863.73      129649.37      26816.772      102832.6     
    254000   254000         0.18306759     0.16625547     314.74143      294.13799      20.603438      18.71131       297.77692      165.96103      130420.16      129656.35      26645.358      103011       
    255000   255000         0.18318014     1.2116082      308.20961      305.38243      2.82718        18.699813      299.37784     -15.84887       129585.79      129658.73      26788.61       102870.12    
    256000   256000         0.18341374     0.5735576      305.86345      299.89119      5.9722587      18.675996      299.546        404.29851      131514.48      129653.78      26803.657      102850.12    
    257000   257000         0.18336899     0.26230901     312.32386      299.26509      13.058775      18.680554      299.84074     -395.07192      127833.25      129651.5       26830.03       102821.47    
    258000   258000         0.18332052     0.37963166     305.75035      296.7273       9.0230472      18.685493      299.49108      271.85832      130906.35      129655.17      26798.743      102856.43    
    259000   259000         0.18331802     0.25953856     307.98413      294.78596      13.198171      18.685748      297.25027      614.83836      132485.52      129655.85      26598.233      103057.61    
    260000   260000         0.18342705     0.15511805     306.0881       284.00534      22.082758      18.674642      299.26942      165.40261      130410.73      129649.5       26778.908      102870.59    
    261000   261000         0.18318362     0.11329195     313.18168      282.94622      30.23546       18.699458      299.28803      138.6609       130295.66      129657.5       26780.573      102876.93    
    262000   262000         0.18294848     0.10623232     316.56419      284.31944      32.244749      18.723492      298.25158     -315.85274      128206.62      129660.27      26687.831      102972.44    
    263000   263000         0.18246327     0.15866754     304.2033       282.61455      21.588753      18.773282      296.02244     -727.68531      126313.32      129662.35      26488.365      103173.99    
    264000   264000         0.18200077     0.10572154     319.99216      287.59163      32.400534      18.820988      299.78851      24.737619      129767.65      129653.8       26825.357      102828.44    
    265000   265000         0.18162987     0.11638502     319.73684      290.30492      29.431918      18.859421      298.80302     -97.935678      129203.73      129654.46      26737.174      102917.28    
    266000   266000         0.18143866     0.1742225      304.7203       285.05904      19.661262      18.879297      298.25458      251.69766      130816.09      129657.7       26688.099      102969.6     
    267000   267000         0.18105893     0.082691756    315.63598      274.21185      41.424134      18.918892      297.92206      111.29376      130171.61      129659.41      26658.345      103001.06    
    268000   268000         0.18076398     0.13256229     314.20879      288.3686       25.840187      18.949762      300.11248     -234.51015      128570.41      129649.69      26854.346      102795.35    
    269000   269000         0.18075008     0.18808103     306.33607      288.12352      18.212546      18.951219      298.93463      299.42201      131032.54      129654.51      26748.951      102905.56    
    270000   270000         0.18061873     0.48745375     296.89611      289.86891      7.0271987      18.965001      297.72468     -429.21808      127681.97      129657.36      26640.684      103016.67    
    271000   271000         0.18050221     0.12224781     311.67483      283.65441      28.020416      18.977244      298.17444      93.378149      130085.01      129655.25      26680.928      102974.32    
    272000   272000         0.18050329     0.18784507     319.05394      300.81851      18.235423      18.97713       300.32424     -593.79461      126917.64      129650.46      26873.294      102777.17    
    273000   273000         0.18035558     0.14715761     313.13512      289.8578       23.277316      18.992672      301.17347      65.264711      129948.34      129647.97      26949.284      102698.69    
    274000   274000         0.18016321     0.21607475     310.69         294.83699      15.853006      19.012952      298.00016      193.71829      130554.93      129663.38      26665.333      102998.05    
    275000   275000         0.18006191     0.16164852     316.48446      295.29383      21.190632      19.023648      297.98868     -238.87635      128557.34      129656.73      26664.306      102992.42    
    276000   276000         0.17990638     0.11311573     314.30618      284.02362      30.282565      19.040094      298.70479      626.74749      132544.6       129660.12      26728.385      102931.73    
    277000   277000         0.1796732      0.12469307     320.94533      293.4744       27.470929      19.064804      298.84929      872.86069      133678.95      129661.78      26741.315      102920.47    
    278000   278000         0.17945157     0.12767827     313.83582      287.00718      26.82864       19.08835       298.37181     -373.68608      127940.67      129660.49      26698.589      102961.9     
    279000   279000         0.17932065     0.19921821     312.54445      295.35007      17.194384      19.102286      299.67121     -401.79653      127800.6       129649.79      26814.86       102834.93    
    280000   280000         0.17934072     0.1983654      302.27103      285.00273      17.268306      19.100148      299.2242       397.59632      131485.71      129655.85      26774.862      102880.99    
    281000   281000         0.17944559     0.35006318     299.58359      289.7984       9.785189       19.088986      298.52996      772.99165      133217.36      129659.82      26712.74       102947.08    
    282000   282000         0.17963875     0.5300107      310.91414      304.45118      6.4629532      19.06846       299.61963     -375.72614      127922.4       129651.61      26810.245      102841.36    
    283000   283000         0.17983351     0.31226572     302.72411      291.7545       10.969614      19.047809      297.31696      219.60032      130664.96      129654.29      26604.2        103050.09    
    284000   284000         0.17975613     0.12153353     312.97829      284.79319      28.185098      19.056008      298.27888      117.37166      130198.56      129658.38      26690.274      102968.11    
    285000   285000         0.17985683     0.32074323     310.73823      300.05855      10.679678      19.045339      297.56828     -54.475193      129406.38      129657.09      26626.688      103030.4     
    286000   286000         0.17991609     1.7806065      296.41943      294.49569      1.9237459      19.039066      297.94664      881.6704       133715.15      129657.44      26660.545      102996.89    
    287000   287000         0.18007475     0.16870221     305.47549      285.17087      20.304621      19.022292      298.41378      213.0775       130641.95      129661.3       26702.344      102958.96    
    288000   288000         0.1803652      3.0912378      304.41378      303.30567      1.1081109      18.991659      299.05014     -334.47642      128114.24      129653.6       26759.286      102894.31    
    289000   289000         0.18066602     0.75315321     309.66878      305.12066      4.5481242      18.960036      300.68017      693.673        132843.27      129650.78      26905.144      102745.63    
    290000   290000         0.18089059     0.087761708    322.99698      283.9659       39.031081      18.936498      298.98993     -756.95053      126176.31      129660.03      26753.899      102906.13    
    291000   291000         0.18076647     0.15621375     312.22453      290.29666      21.927867      18.949501      297.89098      174.59417      130462.79      129659.25      26655.564      103003.69    
    292000   292000         0.18077428     0.13809218     313.73386      288.92845      24.805418      18.948682      301.30693     -61.917025      129360.75      129645.71      26961.227      102684.49    
    293000   293000         0.18085132     0.15096344     313.79306      291.10257      22.69049       18.940611      298.67991      949.76064      134022.92      129651.83      26726.158      102925.68    
    294000   294000         0.18097199     0.21679374     305.13503      289.3346       15.80043       18.92798       298.10493      345.91197      131247.3       129655.31      26674.708      102980.6     
    295000   295000         0.18110215     0.14398932     311.86105      288.07155      23.789502      18.914377      300.31258      76.999273      130011.08      129656.71      26872.251      102784.46    
    296000   296000         0.18110883     0.1053399      315.93134      283.41342      32.517921      18.913679      298.82984      288.96185      130982.93      129653.04      26739.574      102913.47    
    297000   297000         0.18093479     0.24675909     299.11821      285.23651      13.881695      18.931872      299.337        579.09949      132318.91      129653.71      26784.955      102868.76    
    298000   298000         0.18074376     0.14344826     309.61017      285.73094      23.879232      18.951881      297.71487      201.67236      130584.68      129656.53      26639.806      103016.72    
    299000   299000         0.18057685     0.15743564     312.0531       290.29542      21.75768       18.969399      297.45694     -303.17517      128260.9       129656.21      26616.726      103039.48    
    300000   300000         0.18034889     0.24595227     298.16149      284.23426      13.927232      18.993376      298.57154      0.41287501     129660.95      129659.05      26716.461      102942.59    
    301000   301000         0.18027266     0.38922604     303.03891      294.23828      8.8006299      19.001408      298.43948     -124.05055      129084.04      129654.96      26704.644      102950.32    
    302000   302000         0.18019845     0.17178747     315.75047      295.81052      19.939955      19.009233      300.14607     -57.116492      129392.85      129655.71      26857.352      102798.36    
    303000   303000         0.18012746     0.11484597     314.11914      284.2928       29.826335      19.016725      297.9173       75.568808      130009.55      129661.76      26657.92       103003.84    
    304000   304000         0.18009237     0.15411237     305.30406      283.0772       22.226862      19.02043       299.35308      220.2329       130659.6       129646.02      26786.394      102859.63    
    305000   305000         0.1800978      0.12541681     322.21618      294.90378      27.312403      19.019857      301.33273     -67.235273      129343.11      129652.54      26963.535      102689.01    
    306000   306000         0.18008567     0.14356539     307.39303      283.53328      23.85975       19.021138      299.45702      819.23161      133421.64      129651.29      26795.694      102855.59    
    307000   307000         0.18015039     0.154561       305.65525      283.49291      22.162345      19.014305      298.61626     -130.52262      129056.35      129657.06      26720.462      102936.59    
    308000   308000         0.18008157     0.15080999     309.48609      286.77251      22.713577      19.021571      297.48936     -517.39947      127281.08      129662.31      26619.627      103042.68    
    309000   309000         0.18007005     0.17399867     310.09811      290.41156      19.686555      19.022788      299.62085      201.40679      130584.5       129657.57      26810.354      102847.21    
    310000   310000         0.17990271     0.084205374    322.98507      282.30555      40.679522      19.040482      300.11394     -12.057299      129594.85      129650.35      26854.476      102795.87    
    311000   311000         0.17970958     0.1753684      309.39586      289.86307      19.532791      19.060945      298.69751      365.16009      131336.75      129656.17      26727.733      102928.43    
    312000   312000         0.1795644      0.11581357     321.21173      291.63459      29.577141      19.076356      297.85605     -33.685294      129504.9       129659.93      26652.438      103007.49    
    313000   313000         0.17945998     0.52285133     303.21755      296.6661       6.55145        19.087456      299.19905      117.38742      130189.75      129649.5       26772.611      102876.89    
    314000   314000         0.17934331     0.11292173     311.15052      280.81593      30.334591      19.099873      297.13414     -637.9658       126727.55      129663.67      26587.841      103075.83    
    315000   315000         0.17930789     0.15235767     313.50582      291.02298      22.482849      19.103645      300.83383     -261.39259      128453.48      129656.48      26918.893      102737.59    
    316000   316000         0.17926967     0.11871559     306.61462      277.7605       28.854124      19.107719      297.25569     -416.99604      127740.1       129659.24      26598.718      103060.52    
    317000   317000         0.17924666     0.12995565     316.3069       289.94841      26.358487      19.110172      300.68641      377.44244      131386.07      129648.97      26905.702      102743.27    
    318000   318000         0.17908952     0.13103344     309.99552      283.85384      26.14168       19.126939      298.5955       52.08647       129888.75      129649.03      26718.605      102930.42    
    319000   319000         0.17904999     0.35054041     302.28525      292.51338      9.7718673      19.131162      299.95402     -319.3299       128180.92      129650.57      26840.166      102810.41    
    320000   320000         0.1790717      0.1719768      305.81543      285.89743      19.918002      19.128843      297.71593     -440.99869      127627.2       129656.81      26639.901      103016.91    
    321000   321000         0.17901281     0.26426924     302.91371      289.9518       12.961911      19.135135      299.16226      71.316739      129980.54      129652.32      26769.319      102883       
    322000   322000         0.1790808      0.48643969     300.49748      293.45564      7.0418479      19.12787       300.12261      224.18251      130683.37      129651.62      26855.252      102796.37    
    323000   323000         0.17907558     0.18760958     308.62152      290.36321      18.258313      19.128429      298.43913     -313.81781      128214.18      129658.47      26704.613      102953.85    
    324000   324000         0.17909079     0.28948748     308.00353      296.17077      11.832755      19.126804      299.17535      42.456338      129849.79      129654.39      26770.491      102883.9     
    325000   325000         0.17925051     0.3566276      307.04688      297.4418       9.6050737      19.109761      297.98484     -519.35773      127268.26      129658.5       26663.963      102994.54    
    326000   326000         0.17940127     0.16786528     314.01058      293.60473      20.405854      19.093702      298.25383      113.04713      130176.39      129656.11      26688.032      102968.08    
    327000   327000         0.17945186     0.37857142     306.07546      297.02714      9.0483173      19.088319      298.55999      327.89956      131169.08      129659.98      26715.427      102944.55    
    328000   328000         0.1794764      0.33218756     317.27671      306.96497      10.311748      19.085709      299.98513     -265.09334      128428.32      129648.36      26842.951      102805.41    
    329000   329000         0.17966565     5.6016367      305.92745      305.31595      0.61150598     19.065605      299.19904      173.61343      130452.61      129653.59      26772.611      102880.98    
    330000   330000         0.17981023     0.14513901     316.04229      292.44123      23.601059      19.050275      298.5406      -121.71629      129096.37      129656.55      26713.692      102942.86    
    331000   331000         0.17993254     0.10908365     322.25102      290.84911      31.401905      19.037325      299.17687     -63.412629      129365.8       129657.64      26770.627      102887.02    
    332000   332000         0.18008208     0.14954023     308.39244      285.486        22.90644       19.021517      297.85782      9.0505834      129700.66      129659         26652.597      103006.41    
    333000   333000         0.18038928     0.40880904     300.7884       292.40934      8.3790572      18.989124      298.71851     -208.51375      128695.74      129655.39      26729.612      102925.77    
[...]
   1431000   1431000        0.18424764     0.1976486      315.2373       297.90637      17.330931      18.591469      300.10688      92.090323      130070.46      129646.63      26853.844      102792.78    
   1432000   1432000        0.18424884     0.17119598     314.35588      294.34704      20.008848      18.591348      299.13571      509.88769      131994.19      129647.53      26766.943      102880.59    
   1433000   1433000        0.18422871     0.15989947     307.65804      286.23561      21.422424      18.59338       298.44916      237.31171      130747.41      129655.23      26705.51       102949.72    
   1434000   1434000        0.1842269      0.13697468     312.13801      287.13022      25.007792      18.593562      297.27902      192.57535      130547.37      129661.08      26600.805      103060.28    
   1435000   1435000        0.18420472     0.10996046     317.61918      286.46767      31.151511      18.595802      299.80353     -490.34621      127394.61      129651.34      26826.701      102824.64    
   1436000   1436000        0.1841665      0.11887891     307.3264       278.51192      28.814484      18.59966       299.45939     -226.58434      128608.69      129651.5       26795.907      102855.6     
   1437000   1437000        0.18414044     0.14570692     315.59399      292.08491      23.509071      18.602293      297.50084     -382.30728      127895.52      129655.01      26620.654      103034.36    
   1438000   1438000        0.18413428     0.2507166      307.09749      293.43491      13.662575      18.602915      297.2958      -627.00229      126775.89      129661.55      26602.307      103059.24    
   1439000   1439000        0.18409383     0.28918876     305.03559      293.19061      11.844977      18.607002      298.55244     -317.5709       128195.36      129656.92      26714.752      102942.17    
   1440000   1440000        0.18405296     0.36623333     307.80057      298.44743      9.3531476      18.611134      300.05815      344.96257      131239.21      129651.59      26849.484      102802.1     
   1441000   1441000        0.18402956     0.24759381     305.5637       291.7288       13.834895      18.6135        299.03898     -703.64639      126417.36      129655.76      26758.288      102897.47    
   1442000   1442000        0.18400996     0.15830128     312.21841      290.57971      21.638702      18.615483      298.32689     -127.72515      129071.41      129659.24      26694.569      102964.68    
   1443000   1443000        0.18400437     0.28064155     305.10712      292.90139      12.205728      18.616049      299.80342     -54.600891      129404.43      129655.72      26826.691      102829.03    
   1444000   1444000        0.18398502     0.26415569     307.988        295.02052      12.967483      18.618007      298.0113      -696.23516      126452.61      129656.9       26666.33       102990.57    
   1445000   1445000        0.18395472     0.16481621     308.70497      287.92161      20.783358      18.621074      296.9551      -636.63311      126732.65      129662.63      26571.821      103090.81    
   1446000   1446000        0.1839153      0.14297122     312.83027      288.87137      23.958908      18.625064      299.75271     -11.794452      129601.32      129655.6       26822.153      102833.45    
   1447000   1447000        0.18385133     0.12110952     311.24845      282.96468      28.283774      18.631545      299.12606     -809.64718      125926.43      129652.68      26766.08       102886.6     
   1448000   1448000        0.18381842     0.11493014     310.13164      280.32715      29.804491      18.634881      300.21326     -353.86937      128020.52      129649.14      26863.364      102785.77    
   1449000   1449000        0.18378237     0.11607219     316.31283      286.80159      29.511241      18.638536      299.47097     -34.447465      129496.8       129655.34      26796.943      102858.39    
   1450000   1450000        0.18372951     0.16076078     310.86197      289.55432      21.30765       18.643898      299.44256     -183.5978       128811.42      129656.4       26794.401      102862       
   1451000   1451000        0.18368417     0.15905594     311.58829      290.05225      21.536035      18.648501      299.43423     -3.2090262      129644.93      129659.69      26793.656      102866.04    
   1452000   1452000        0.18363405     0.10647067     312.48552      280.31296      32.172562      18.653591      299.31448     -594.44547      126919.81      129655.63      26782.94       102872.69    
   1453000   1453000        0.18357898     0.10931414     318.89746      287.56176      31.335694      18.659186      299.75306     -193.38637      128760.72      129650.75      26822.185      102828.56    
   1454000   1454000        0.18353032     0.11580218     316.00532      286.42526      29.580051      18.664134      297.16577     -856.45871      125718         129659.69      26590.672      103069.01    
   1455000   1455000        0.1834855      0.20907802     307.1816       290.79807      16.383522      18.668692      299.05679     -362.44756      127983.86      129651.95      26759.881      102892.07    
   1456000   1456000        0.18348414     0.1503263      314.56665      291.77999      22.78666       18.668831      299.9085      -284.83793      128340.34      129651.25      26836.093      102815.15    
   1457000   1457000        0.18344019     0.17060297     313.5017       293.4233       20.078399      18.673303      300.44731     -324.02149      128161.27      129652.51      26884.307      102768.2     
   1458000   1458000        0.1834135      0.10434816     315.19857      282.3716       32.826974      18.67602       297.81482     -578.75013      126998.25      129661.83      26648.749      103013.09    
   1459000   1459000        0.18337192     0.26374536     296.19302      283.20536      12.987658      18.680256      298.37823      186.45234      130519.26      129661.15      26699.163      102961.98    
   1460000   1460000        0.18332282     0.25273433     308.31175      294.75825      13.553498      18.685259      297.90019     -135.77388      129035.3       129660.17      26656.388      103003.79    
   1461000   1461000        0.18328517     0.17007514     312.43822      292.29751      20.140712      18.689097      298.8644      -265.63981      128428.44      129650.99      26742.666      102908.33    
   1462000   1462000        0.18326533     0.094214853    322.39296      286.03527      36.357689      18.69112       299.54027     -383.45138      127888.31      129653.07      26803.144      102849.92    
   1463000   1463000        0.18323545     0.11967361     315.16333      286.54019      28.623138      18.694168      300.62621     -158.12645      128925.89      129653.63      26900.315      102753.32    
   1464000   1464000        0.1831998      0.099781813    320.43344      286.1042       34.329245      18.697806      299.60234     -558.09214      127089.81      129658.32      26808.698      102849.62    
   1465000   1465000        0.18314727     0.12206124     314.04538      285.98213      28.063244      18.703169      299.00994     -429.82525      127672.16      129650.34      26755.69       102894.65    
   1466000   1466000        0.18312238     0.17589497     310.95703      291.48271      19.474316      18.705711      299.07594      40.998898      129853.54      129664.85      26761.596      102903.26    
   1467000   1467000        0.18314821     0.77912433     297.79905      293.40253      4.3965183      18.703073      298.54516     -121.43695      129096.61      129655.5       26714.101      102941.4     
   1468000   1468000        0.18317093     0.12863458     311.5082       284.87902      26.629187      18.700753      298.42097     -203.61175      128720.53      129657.61      26702.988      102954.63    
   1469000   1469000        0.18314333     0.16819394     309.90798      289.542        20.365979      18.703571      298.8729       340.10238      131225.94      129660.69      26743.427      102917.26    
   1470000   1470000        0.18314449     0.13848923     309.00613      284.27183      24.734302      18.703453      298.51641     -512.27949      127298.36      129656.03      26711.528      102944.5     
   1471000   1471000        0.18312271     0.21010643     307.20171      290.89838      16.303329      18.705678      298.07237     -171.77667      128872.7       129663.27      26671.795      102991.48    
   1472000   1472000        0.18312648     0.17732705     306.67518      287.35813      19.317044      18.705292      298.26053     -7.1365877      129621.82      129654.66      26688.632      102966.03    
   1473000   1473000        0.18312583     0.12837186     307.22417      280.54048      26.683686      18.705359      298.84829     -217.63338      128652.32      129653.93      26741.225      102912.71    
   1474000   1474000        0.18313803     0.17811004     307.73171      288.49959      19.232124      18.704113      299.61247     -288.98814      128325.02      129655.03      26809.604      102845.42    
   1475000   1475000        0.18314268     0.16534727     316.13448      295.41787      20.716607      18.703638      299.92103     -402.16218      127807.06      129657.93      26837.215      102820.71    
   1476000   1476000        0.18313948     0.23549687     305.58902      291.04346      14.545562      18.703964      298.19158     -351.97747      128035.83      129655.74      26682.462      102973.28    
   1477000   1477000        0.18318172     0.24790481     309.65563      295.83809      13.817539      18.699652      299.44617     -720.99018      126337.42      129655.64      26794.724      102860.91    
   1478000   1478000        0.1832036      0.20060309     313.34528      296.2696       17.075681      18.697418      298.94028     -483.19768      127430.43      129654.25      26749.456      102904.8     
   1479000   1479000        0.18324084     0.24981097     302.31303      288.60093      13.712106      18.693619      298.95392     -224.08306      128622.96      129654.26      26750.677      102903.58    
   1480000   1480000        0.18324869     0.14135846     314.23739      290.00513      24.232256      18.692817      299.1572       201.63247      130583.29      129655.32      26768.867      102886.45    
   1481000   1481000        0.18329052     0.98808919     294.5776       291.11088      3.4667259      18.688552      298.68567     -47.66686       129435.74      129655.12      26726.674      102928.45    
   1482000   1482000        0.18331117     0.17059237     312.2399       292.16026      20.079645      18.686447      299.90977     -230.86856      128594.53      129657.06      26836.207      102820.86    
   1483000   1483000        0.18334215     0.30307679     297.50527      286.20307      11.302199      18.683289      298.44421     -596.39009      126911.66      129656.43      26705.067      102951.36    
   1484000   1484000        0.18336791     0.50743849     302.75154      296.0011       6.7504425      18.680664      297.72528     -362.96412      127986.63      129657.1       26640.737      103016.36    
   1485000   1485000        0.18341768     0.22901204     311.99675      297.03931      14.957442      18.675596      299.99939     -410.42961      127765.28      129654.2       26844.226      102809.98    
   1486000   1486000        0.18342063     0.31758661     305.53694      294.75111      10.785827      18.675295      297.07746      117.58723      130202.4       129661.23      26582.77       103078.46    
   1487000   1487000        0.18338263     0.13638299     321.02791      295.91162      25.116288      18.679165      299.07828      41.372344      129849.52      129659.11      26761.805      102897.31    
   1488000   1488000        0.18337515     0.26437374     318.80177      305.84499      12.956788      18.679927      299.29893      184.49044      130500.81      129651.73      26781.549      102870.18    
   1489000   1489000        0.1833808      0.44664649     308.4132       300.74397      7.6692294      18.679351      299.55611      12.558063      129709.36      129651.57      26804.561      102847.01    
   1490000   1490000        0.18340624     0.14501434     314.02255      290.4012       23.621349      18.67676       299.34208     -839.74574      125786.83      129651.6       26785.41       102866.19    
   1491000   1491000        0.18339882     0.15742682     316.15748      294.39858      21.7589        18.677515      298.47892     -934.82987      125351.08      129653.45      26708.173      102945.28    
   1492000   1492000        0.183362       0.11661087     309.32995      279.95504      29.374914      18.681267      298.22415     -762.06246      126150.12      129657.36      26685.376      102971.98    
   1493000   1493000        0.18334073     0.078289824    327.15151      283.39825      43.753251      18.683434      297.72106     -978.49936      125156.37      129659.72      26640.36       103019.36    
   1494000   1494000        0.18330828     0.13439026     313.58513      288.09642      25.488711      18.686741      298.8258      -723.8584       126325.63      129657.05      26739.212      102917.84    
   1495000   1495000        0.18330338    -0.84119728     297.28981      301.36191     -4.072094       18.68724       298.72097     -345.17066      128066.95      129655.53      26729.833      102925.69    
   1496000   1496000        0.18333389     0.15070377     318.13286      295.40327      22.729586      18.684131      300.64663      93.19272       130081.86      129652.96      26902.142      102750.82    
   1497000   1497000        0.18336968     0.21682917     322.81309      307.01524      15.797848      18.680484      299.98293     -691.29873      126470.04      129651.61      26842.754      102808.85    
   1498000   1498000        0.18339937     0.26371045     304.81793      291.82855      12.989376      18.67746       298.33286     -536.91582      127188.56      129659.61      26695.104      102964.51    
   1499000   1499000        0.18340082     0.15169543     315.73326      293.15226      22.580998      18.677312      298.41101     -220.7761       128641.54      129657.61      26702.097      102955.52    
   1500000   1500000        0.18342034     0.2849382      303.10199      291.08031      12.021675      18.675325      299.33998      85.405789      130049.35      129656.29      26785.222      102871.06    
   1501000   1501000        0.18342921     0.51554705     306.98549      300.34122      6.6442711      18.674421      297.9764      -417.38267      127737.25      129658.18      26663.207      102994.97    
   1502000   1502000        0.18343834     0.13628309     315.52558      290.39088      25.134698      18.673492      297.99582     -667.64885      126593.52      129666.24      26664.946      103001.3     
   1503000   1503000        0.18346897     0.19919765     312.95418      295.75803      17.196159      18.670374      299.33154     -385.19519      127889.06      129661.84      26784.467      102877.38    
   1504000   1504000        0.18346102     0.19720559     307.88221      290.51234      17.369864      18.671184      298.68132     -552.57723      127108.05      129651.18      26726.285      102924.9     
   1505000   1505000        0.18343521     0.13621622     319.44288      294.29584      25.147037      18.673811      299.91332     -25.187471      129537.05      129652.97      26836.525      102816.45    
   1506000   1506000        0.18338882     0.13644915     306.72972      281.62561      25.104109      18.678534      297.64024     -554.37772      127108.15      129659.56      26633.127      103026.43    
   1507000   1507000        0.18338716     0.328771       311.54281      301.1239       10.418907      18.678703      296.48752     -625.45847      126785.3       129663.85      26529.981      103133.87    
   1508000   1508000        0.18335858     0.1243202      323.28815      295.73483      27.553321      18.681615      298.7882       473.26547      131834.38      129656.26      26735.848      102920.41    
   1509000   1509000        0.18334176     0.16785705     322.9225       302.51565      20.406854      18.683328      299.16143      60.924108      129931.54      129651.15      26769.245      102881.91    
   1510000   1510000        0.18330995     0.11156431     322.74806      292.04439      30.703674      18.686571      297.6987       410.1139       131545.96      129658.49      26638.359      103020.13    
   1511000   1511000        0.18328793     0.1477843      317.44801      294.2694       23.178608      18.688816      298.74563     -319.10905      128189.91      129658.55      26732.039      102926.51    
   1512000   1512000        0.18326068     1.4191833      304.38344      301.96977      2.4136659      18.691595      297.08375     -278.12389      128381.56      129661.57      26583.333      103078.24    
   1513000   1513000        0.1832401      0.36702404     304.12392      294.79093      9.3329972      18.693694      300.05432      204.04108      130598.33      129659.27      26849.142      102810.13    
   1514000   1514000        0.18317531     0.13597076     311.19788      286.00544      25.192434      18.700306      298.33344      22.858743      129760.38      129655.18      26695.155      102960.03    
   1515000   1515000        0.18314931     0.32521725     314.26595      303.7332       10.532757      18.702961      299.46383      9.937542       129704.15      129658.41      26796.304      102862.11    
   1516000   1516000        0.18313932     0.32957828     301.43034      291.03695      10.393386      18.703981      298.17019     -380.75842      127903.96      129656.33      26680.548      102975.78    
   1517000   1517000        0.18314367     0.12419934     313.55651      285.97637      27.580133      18.703537      302.15035      65.492013      129943.39      129641.97      27036.696      102605.27    
   1518000   1518000        0.18310406     0.17874353     310.68228      291.51831      19.163963      18.707582      299.71673     -48.803396      129436.12      129660.72      26818.934      102841.79    
   1519000   1519000        0.18306418     0.073542348    332.9241       286.34639      46.577713      18.711658      298.45658     -542.82215      127157.06      129655.29      26706.174      102949.12    
   1520000   1520000        0.18299109     0.10064479     316.10844      282.07355      34.034889      18.719132      299.55799      24.289571      129769.56      129657.77      26804.729      102853.04    
Loop time of 21475.2 on 32 procs for 1500000 steps with 30020 atoms

Performance: 6.035 ns/day, 3.977 hours/ns, 69.848 timesteps/s, 2.097 Matom-step/s
99.5% CPU use with 32 MPI tasks x 1 OpenMP threads

MPI task timing breakdown:
Section |  min time  |  avg time  |  max time  |%varavg| %total
---------------------------------------------------------------
Pair    | 9717.6     | 10672      | 11700      | 518.6 | 49.70
Bond    | 229.34     | 253.82     | 277.14     |  79.3 |  1.18
Kspace  | 7371.2     | 8392.2     | 9403.9     | 592.1 | 39.08
Neigh   | 756.13     | 771.6      | 791.11     |  44.2 |  3.59
Comm    | 1051.2     | 1175.3     | 1320.1     | 220.3 |  5.47
Output  | 0.14084    | 0.18666    | 0.54842    |  15.7 |  0.00
Modify  | 139.34     | 175.3      | 220.85     | 146.5 |  0.82
Other   |            | 34.54      |            |       |  0.16

Nlocal:        938.125 ave         993 max         878 min
Histogram: 2 0 6 3 5 2 5 4 2 3
Nghost:        10726.3 ave       10880 max       10606 min
Histogram: 3 2 6 5 4 4 2 2 3 1
Neighs:         512834 ave      557568 max      466914 min
Histogram: 1 4 5 3 4 3 3 3 2 4

Total # of neighbors = 16410696
Ave neighs/atom = 546.65876
Ave special neighs/atom = 10.787475
Neighbor list builds = 58870
Dangerous builds = 0
Total wall time: 6:02:44
