LAMMPS (29 Aug 2024 - Update 1)
OMP_NUM_THREADS environment is not set. Defaulting to 1 thread. (src/comm.cpp:98)
  using 1 OpenMP thread(s) per MPI task
# measure thermal conductivity via direct thermostating using fix langevin (x-axis)
# initialization
log tc_z_lav.log
