units real
atom_style full
boundary p p p

# styles
pair_style lj/charmm/coul/long 8.0 12.0
kspace_style pppm 1e-6
dielectric 1.000000
bond_style harmonic
angle_style harmonic
dihedral_style fourier
improper_style cvff
special_bonds amber
pair_modify mix arithmetic
neighbor 2.0 bin
neigh_modify delay 0 every 1 check yes

# system definition
read_data ../final.data
Reading data file ...
  orthogonal box = (-35.667086 -39.652884 -27.891195) to (35.667086 39.652884 27.891195)
  4 by 4 by 2 MPI processor grid
  reading atoms ...
  30020 atoms
  reading velocities ...
  30020 velocities
  scanning bonds ...
  3 = max bonds/atom
  scanning angles ...
  6 = max angles/atom
  scanning dihedrals ...
  24 = max dihedrals/atom
  orthogonal box = (-35.667086 -39.652884 -27.891195) to (35.667086 39.652884 27.891195)
  4 by 4 by 2 MPI processor grid
  reading bonds ...
  30010 bonds
  reading angles ...
  56000 angles
  reading dihedrals ...
  75910 dihedrals
Finding 1-2 1-3 1-4 neighbors ...
  special bond factors lj:    0        0        0.5     
  special bond factors coul:  0        0        0.8333333333333334
     4 = max # of 1-2 neighbors
    11 = max # of 1-3 neighbors
    22 = max # of 1-4 neighbors
    26 = max # of special neighbors
  special bonds CPU = 0.076 seconds
  read_data CPU = 0.626 seconds
# do not reset velocities

# vars
variable dt equal 1.0
variable tLog equal 1000
variable nEvery equal 10
variable nRepeat equal 100
variable boolDump equal 0
variable tDump equal 1000

variable tPreeq equal 10000
variable tPrerun equal 10000
variable tDelay equal 1000
variable tTCrun equal 1500000

# desiered temperature difference
variable Tavg equal 300.0
variable TempDiff equal 30.0
variable Thi equal ${Tavg}+(${TempDiff}/2)
variable Thi equal 300+(${TempDiff}/2)
variable Thi equal 300+(30/2)
variable Tlo equal ${Tavg}-(${TempDiff}/2)
variable Tlo equal 300-(${TempDiff}/2)
variable Tlo equal 300-(30/2)

# defining regions
variable hot_lo equal (lx*0)+xlo
variable hot_hi equal (lx*0.05)+xlo
variable cold_lo equal (lx*0.50)+xlo
variable cold_hi equal (lx*0.55)+xlo

# define heating and cooling block regions
region hot block ${hot_lo} ${hot_hi} INF INF INF INF units box
region hot block -35.6670855376846 ${hot_hi} INF INF INF INF units box
region hot block -35.6670855376846 -32.1003769839161 INF INF INF INF units box
region cold block ${cold_lo} ${cold_hi} INF INF INF INF units box
region cold block 0 ${cold_hi} INF INF INF INF units box
region cold block 0 3.56670855376846 INF INF INF INF units box
compute Thot all temp/region hot
compute Tcold all temp/region cold

# STEP 1 - 1st equilibration (nve)
# 1a - thermo output for md1
thermo_style custom step time temp c_Thot c_Tcold press enthalpy etotal ke pe
thermo_modify colname c_Thot Temp_hot colname c_Tcold Temp_cold
thermo_modify flush yes
thermo ${tLog}
thermo 1000

# 1b - nve equilibration
timestep ${dt}
timestep 1
fix md1 all nve
run ${tPreeq}
run 10000

CITE-CITE-CITE-CITE-CITE-CITE-CITE-CITE-CITE-CITE-CITE-CITE-CITE

Your simulation uses code contributions which should be cited:

- Type Label Framework: https://doi.org/10.1021/acs.jpcb.3c08419

@Article{Gissinger24,
 author = {Jacob R. Gissinger, Ilia Nikiforov, Yaser Afshar, Brendon Waters, Moon-ki Choi, Daniel S. Karls, Alexander Stukowski, Wonpil Im, Hendrik Heinz, Axel Kohlmeyer, and Ellad B. Tadmor},
 title = {Type Label Framework for Bonded Force Fields in LAMMPS},
 journal = {J. Phys. Chem. B},
 year =    2024,
 volume =  128,
 number =  13,
 pages =   {3282–-3297}
}

CITE-CITE-CITE-CITE-CITE-CITE-CITE-CITE-CITE-CITE-CITE-CITE-CITE

PPPM initialization ...
  using 12-bit tables for long-range coulomb (src/kspace.cpp:342)
  G vector (1/distance) = 0.25787445
  grid = 54 60 45
  stencil order = 5
  estimated absolute RMS force accuracy = 0.00038404524
  estimated relative force accuracy = 1.1565408e-06
  using double precision FFTW3
  3d grid and FFT values/proc = 12760 6480
Generated 21 of 21 mixed pair_coeff terms from arithmetic mixing rule
Neighbor list info ...
  update: every = 1 steps, delay = 0 steps, check = yes
  max neighbors/atom: 2000, page size: 100000
  master list distance cutoff = 14
  ghost atom cutoff = 14
  binsize = 7, bins = 11 12 8
  1 neighbor lists, perpetual/occasional/extra = 1 0 0
  (1) pair lj/charmm/coul/long, perpetual
      attributes: half, newton on
      pair build: half/bin/newton
      stencil: half/bin/3d
      bin: standard
Per MPI rank memory allocation (min/avg/max) = 20.61 | 20.98 | 21.22 Mbytes
   Step          Time           Temp         Temp_hot      Temp_cold        Press         Enthalpy        TotEng         KinEng         PotEng    
         0   0              297.69673      295.86983      302.27091      213.30029      130639.82      129658.15      26638.183      103019.96    
      1000   1000           299.11432      307.70928      293.38852      126.92638      130241.92      129657.77      26765.029      102892.74    
      2000   2000           297.98715      303.47186      291.22762     -255.02617      128480.62      129654.33      26664.17       102990.16    
      3000   3000           298.11551      300.89535      300.5834      -298.19502      128287.58      129659.96      26675.655      102984.3     
      4000   4000           299.95835      303.98638      298.02837      311.10856      131087.29      129655.47      26840.554      102814.92    
      5000   5000           298.69842      297.14908      297.53584      392.25071      131463.1       129657.84      26727.814      102930.03    
      6000   6000           296.34515      295.86634      291.02343     -179.41996      128831.71      129657.46      26517.242      103140.22    
      7000   7000           296.98053      290.02883      293.93426      223.508        130686.36      129657.71      26574.096      103083.61    
      8000   8000           299.75918      301.18145      316.81606     -23.87276       129539.12      129648.99      26822.733      102826.26    
      9000   9000           299.56213      305.95841      309.26762      145.93954      130328.32      129656.66      26805.1        102851.56    
     10000   10000          299.2864       291.85913      297.96771     -387.29479      127875.8       129658.25      26780.428      102877.82    
Loop time of 144.038 on 32 procs for 10000 steps with 30020 atoms

Performance: 5.998 ns/day, 4.001 hours/ns, 69.426 timesteps/s, 2.084 Matom-step/s
99.5% CPU use with 32 MPI tasks x 1 OpenMP threads

MPI task timing breakdown:
Section |  min time  |  avg time  |  max time  |%varavg| %total
---------------------------------------------------------------
Pair    | 65.992     | 72.06      | 79.998     |  48.1 | 50.03
Bond    | 1.4906     | 1.7019     | 1.8551     |   6.5 |  1.18
Kspace  | 48.776     | 56.584     | 62.994     |  55.0 | 39.28
Neigh   | 4.9924     | 5.1169     | 5.2232     |   3.6 |  3.55
Comm    | 6.9581     | 7.6936     | 9.2197     |  20.6 |  5.34
Output  | 0.001233   | 0.0015857  | 0.0031944  |   0.8 |  0.00
Modify  | 0.049581   | 0.054276   | 0.066199   |   1.8 |  0.04
Other   |            | 0.8252     |            |       |  0.57

Nlocal:        938.125 ave        1003 max         881 min
Histogram: 3 1 2 6 5 7 3 2 2 1
Nghost:        10710.8 ave       10865 max       10590 min
Histogram: 4 5 4 3 2 3 5 2 2 2
Neighs:         512796 ave      569864 max      476485 min
Histogram: 4 7 4 3 3 2 4 1 2 2

Total # of neighbors = 16409467
Ave neighs/atom = 546.61782
Ave special neighs/atom = 10.787475
Neighbor list builds = 390
Dangerous builds = 0
unfix md1

# STEP 2 - pre run
# 2a - impose nve
fix md2 all nve

# 2b - impose thermostating
fix hot all langevin ${Thi} ${Thi} 100.0 57485 tally yes
fix hot all langevin 315 ${Thi} 100.0 57485 tally yes
fix hot all langevin 315 315 100.0 57485 tally yes
fix cold all langevin ${Tlo} ${Tlo} 100.0 12490 tally yes
fix cold all langevin 285 ${Tlo} 100.0 12490 tally yes
fix cold all langevin 285 285 100.0 12490 tally yes
fix_modify hot temp Thot
fix_modify cold temp Tcold
# calculate tdiff of regions
variable tdiff equal c_Thot-c_Tcold

# 2c - thermo output
thermo_style custom step time temp c_Thot c_Tcold f_hot f_cold v_tdiff press enthalpy etotal ke pe
WARNING: New thermo_style command, previous thermo_modify settings will be lost (src/output.cpp:904)
thermo_modify colname c_Thot Temp_hot colname c_Tcold Temp_cold               colname f_hot E_hot colname f_cold E_cold               colname v_tdiff dTemp_step
thermo_modify flush yes
thermo ${tLog}
thermo 1000

# 2d - pre run
run ${tPrerun}
run 10000
PPPM initialization ...
  using 12-bit tables for long-range coulomb (src/kspace.cpp:342)
  G vector (1/distance) = 0.25787445
  grid = 54 60 45
  stencil order = 5
  estimated absolute RMS force accuracy = 0.00038404524
  estimated relative force accuracy = 1.1565408e-06
  using double precision FFTW3
  3d grid and FFT values/proc = 12760 6480
Generated 21 of 21 mixed pair_coeff terms from arithmetic mixing rule
Per MPI rank memory allocation (min/avg/max) = 21.59 | 21.84 | 21.97 Mbytes
   Step          Time           Temp         Temp_hot      Temp_cold        E_hot          E_cold       dTemp_step       Press         Enthalpy        TotEng         KinEng         PotEng    
     10000   10000          299.2864       292.83825      297.96771     -0             -0             -5.1294583     -387.29479      127875.8       129658.25      26780.428      102877.82    
     11000   11000          299.82641      316.17337      280.96662     -254.95647      328.03252      35.206749      192.32694      130462.3       129577.15      26828.749      102748.4     
     12000   12000          299.30903      327.27598      294.33983     -362.72563      247.10236      32.936144     -303.56017      128390.54      129787.62      26782.452      103005.16    
     13000   13000          297.27709      304.36133      289.33066     -212.74738      422.07799      15.030675     -128.99533      128868.24      129461.92      26600.632      102861.29    
     14000   14000          298.42642      319.44996      290.45729     -300.94787      579.95246      28.992669     -20.734443      129298.86      129394.28      26703.476      102690.81    
     15000   15000          296.9079       335.45665      284.2553      -328.42772      584.26425      51.201352     -414.48794      127521.67      129429.27      26567.597      102861.67    
     16000   16000          296.46411      305.18867      284.81097     -362.38503      615.31326      20.377702     -99.048888      128981.9       129437.75      26527.886      102909.86    
     17000   17000          298.10121      300.50184      296.22698     -306.51995      590.79674      4.2748582     -98.621222      128949.39      129403.27      26674.376      102728.9     
     18000   18000          297.3362       296.73158      288.78757     -453.83038      623.78989      7.9440153      35.196305      129696.47      129534.48      26605.922      102928.56    
     19000   19000          298.74659      321.63502      280.09231     -477.10773      659.446        41.542713      137.26989      130153.85      129522.09      26732.125      102789.97    
     20000   20000          296.86457      306.16612      281.6021      -401.8437       781.14918      24.564019      72.241045      129664.7       129332.23      26563.72       102768.51    
Loop time of 144.232 on 32 procs for 10000 steps with 30020 atoms

Performance: 5.990 ns/day, 4.006 hours/ns, 69.333 timesteps/s, 2.081 Matom-step/s
99.5% CPU use with 32 MPI tasks x 1 OpenMP threads

MPI task timing breakdown:
Section |  min time  |  avg time  |  max time  |%varavg| %total
---------------------------------------------------------------
Pair    | 65.739     | 71.307     | 78.477     |  43.1 | 49.44
Bond    | 1.4985     | 1.7074     | 1.8677     |   6.9 |  1.18
Kspace  | 49.133     | 56.048     | 61.496     |  48.6 | 38.86
Neigh   | 5.0085     | 5.116      | 5.2281     |   3.4 |  3.55
Comm    | 7.025      | 7.7243     | 8.9498     |  17.5 |  5.36
Output  | 0.001599   | 0.0017328  | 0.0036383  |   0.8 |  0.00
Modify  | 1.856      | 2.0525     | 2.2068     |   7.7 |  1.42
Other   |            | 0.2752     |            |       |  0.19

Nlocal:        938.125 ave         989 max         874 min
Histogram: 2 1 2 2 4 3 11 3 3 1
Nghost:        10711.4 ave       10872 max       10549 min
Histogram: 2 2 6 2 3 4 3 5 2 3
Neighs:         512834 ave      559130 max      460340 min
Histogram: 1 1 5 5 4 2 2 6 4 2

Total # of neighbors = 16410684
Ave neighs/atom = 546.65836
Ave special neighs/atom = 10.787475
Neighbor list builds = 391
Dangerous builds = 0
unfix md2

# STEP 3 - md for tc caluclation
# 3a - impose nve
fix md3 all nve

# 3b - calculate and output thermal profile
compute ke all ke/atom
variable temp atom c_ke/(1.5*0.001987204)
compute layers all chunk/atom bin/1d x lower 0.05 units reduced
fix bins all ave/chunk ${nEvery} ${nRepeat} ${tLog} layers v_temp file Tprofile_x_lav.dat
fix bins all ave/chunk 10 ${nRepeat} ${tLog} layers v_temp file Tprofile_x_lav.dat
fix bins all ave/chunk 10 100 ${tLog} layers v_temp file Tprofile_x_lav.dat
fix bins all ave/chunk 10 100 1000 layers v_temp file Tprofile_x_lav.dat

# 3c - reset thermostats to zero energy accumulation
fix hot all langevin ${Thi} ${Thi} 100.0 57485 tally yes
fix hot all langevin 315 ${Thi} 100.0 57485 tally yes
fix hot all langevin 315 315 100.0 57485 tally yes
fix cold all langevin ${Tlo} ${Tlo} 100.0 12490 tally yes
fix cold all langevin 285 ${Tlo} 100.0 12490 tally yes
fix cold all langevin 285 285 100.0 12490 tally yes
fix_modify hot temp Thot
fix_modify cold temp Tcold

# 3c - compute average tdiff
fix ave all ave/time ${nEvery} ${nRepeat} ${tLog} v_tdiff ave running
fix ave all ave/time 10 ${nRepeat} ${tLog} v_tdiff ave running
fix ave all ave/time 10 100 ${tLog} v_tdiff ave running
fix ave all ave/time 10 100 1000 v_tdiff ave running

# 3d - time delay run
variable aTime equal time
variable start_time equal ${aTime}
variable start_time equal 20000
run ${tDelay}
run 1000
PPPM initialization ...
  using 12-bit tables for long-range coulomb (src/kspace.cpp:342)
  G vector (1/distance) = 0.25787445
  grid = 54 60 45
  stencil order = 5
  estimated absolute RMS force accuracy = 0.00038404524
  estimated relative force accuracy = 1.1565408e-06
  using double precision FFTW3
  3d grid and FFT values/proc = 12760 6480
Generated 21 of 21 mixed pair_coeff terms from arithmetic mixing rule
Per MPI rank memory allocation (min/avg/max) = 22 | 22.1 | 22.22 Mbytes
   Step          Time           Temp         Temp_hot      Temp_cold        E_hot          E_cold       dTemp_step       Press         Enthalpy        TotEng         KinEng         PotEng    
     20000   20000          296.86457      306.96807      281.6021      -0             -0              25.365968      72.241045      129664.7       129332.23      26563.72       102768.51    
     21000   21000          296.35883      315.12846      287.58994     -152.01672      126.34709      27.538525     -152.72172      128656.52      129359.39      26518.465      102840.93    
Loop time of 14.4615 on 32 procs for 1000 steps with 30020 atoms

Performance: 5.974 ns/day, 4.017 hours/ns, 69.149 timesteps/s, 2.076 Matom-step/s
99.5% CPU use with 32 MPI tasks x 1 OpenMP threads

MPI task timing breakdown:
Section |  min time  |  avg time  |  max time  |%varavg| %total
---------------------------------------------------------------
Pair    | 6.3639     | 7.141      | 7.9428     |  14.5 | 49.38
Bond    | 0.15095    | 0.17089    | 0.18897    |   2.2 |  1.18
Kspace  | 4.867      | 5.6405     | 6.4081     |  16.3 | 39.00
Neigh   | 0.48201    | 0.49441    | 0.50492    |   1.2 |  3.42
Comm    | 0.70107    | 0.77087    | 0.90252    |   5.8 |  5.33
Output  | 0.00011142 | 0.00011905 | 0.00026283 |   0.0 |  0.00
Modify  | 0.19461    | 0.21666    | 0.24203    |   2.6 |  1.50
Other   |            | 0.02699    |            |       |  0.19

Nlocal:        938.125 ave         997 max         873 min
Histogram: 3 0 3 4 5 3 6 4 3 1
Nghost:        10717.2 ave       10874 max       10565 min
Histogram: 3 2 4 2 6 3 4 4 2 2
Neighs:         512743 ave      567165 max      466816 min
Histogram: 1 6 5 3 3 4 2 4 3 1

Total # of neighbors = 16407781
Ave neighs/atom = 546.56166
Ave special neighs/atom = 10.787475
Neighbor list builds = 38
Dangerous builds = 0

# 3f - calculate kappa
variable kappa_inst equal (0.5*(abs(f_hot)+abs(f_cold))/(time-${start_time})/(ly*lz)/2.0)*(lx/2.0)/v_tdiff*69478.5785
variable kappa_inst equal (0.5*(abs(f_hot)+abs(f_cold))/(time-20000)/(ly*lz)/2.0)*(lx/2.0)/v_tdiff*69478.5785
variable kappa equal (0.5*(abs(f_hot)+abs(f_cold))/(time-${start_time})/(ly*lz)/2.0)*(lx/2.0)/f_ave*69478.5785
variable kappa equal (0.5*(abs(f_hot)+abs(f_cold))/(time-20000)/(ly*lz)/2.0)*(lx/2.0)/f_ave*69478.5785

# 3e - thermo out
# dump dump_tc all custom 1000 dump.tc_x_ehex.lammpstrj id type mol x y z ix iy iz vx vy vz
thermo_style custom step time v_kappa v_kappa_inst c_Thot c_Tcold v_tdiff f_ave temp press enthalpy etotal ke pe
WARNING: New thermo_style command, previous thermo_modify settings will be lost (src/output.cpp:904)
thermo_modify colname v_kappa kappa colname v_kappa_inst kappa_inst               colname c_Thot Temp_hot colname c_Tcold Temp_cold               colname v_tdiff dTemp_step colname f_ave dTemp
thermo_modify flush yes
thermo ${tLog}
thermo 1000

# 2g - md run for kappa calculation
# optional traj dump
if "${boolDump} == 1" then     "dump tc_dump all atom ${tDump} dump.tc_x.lammpstrj"
run ${tTCrun}
run 1500000
PPPM initialization ...
  using 12-bit tables for long-range coulomb (src/kspace.cpp:342)
  G vector (1/distance) = 0.25787445
  grid = 54 60 45
  stencil order = 5
  estimated absolute RMS force accuracy = 0.00038404524
  estimated relative force accuracy = 1.1565408e-06
  using double precision FFTW3
  3d grid and FFT values/proc = 12760 6480
Generated 21 of 21 mixed pair_coeff terms from arithmetic mixing rule
Per MPI rank memory allocation (min/avg/max) = 22.25 | 22.35 | 22.47 Mbytes
   Step          Time          kappa        kappa_inst      Temp_hot      Temp_cold      dTemp_step       dTemp           Temp          Press         Enthalpy        TotEng         KinEng         PotEng    
     21000   21000          0              0              315.96427      287.58994      28.374336      26.430441      296.35883     -152.72172      128656.52      129359.39      26518.465      102840.93    
     22000   22000          0.069530532    0.058821824    323.53776      289.74945      33.788318      28.584428      297.91858     -507.87838      127040.48      129377.89      26658.034      102719.86    
     23000   23000          0.3752258      0.28796187     326.75059      289.0613       37.689282      28.924119      298.66253     -421.94639      127661.04      129602.97      26724.603      102878.37    
     24000   24000          0.21276664     0.17640244     314.57654      279.00473      35.571808      29.492187      297.21578     -3.8604543      129360.43      129378.2       26595.147      102783.05    
     25000   25000          0.20505608     0.22463614     317.22508      291.38284      25.84224       28.309823      299.71498      791.72284      133231.26      129587.51      26818.777      102768.74    
     26000   26000          0.19748254     0.20458745     315.99238      288.64101      27.351376      28.335407      298.04189     -126.2423       128868.04      129449.05      26669.068      102779.98    
     27000   27000          0.14960948     0.15580464     318.17852      290.96605      27.212473      28.33931       299.76084      110.01518      129995.1       129488.77      26822.881      102665.89    
     28000   28000          0.17333735     0.16468106     312.77076      283.49091      29.279847      27.817641      297.03687     -215.78823      128497.79      129490.92      26579.138      102911.78    
     29000   29000          0.27558625     0.23329426     323.99944      291.11607      32.883364      27.83702       298.09226     -231.64727      128519.07      129585.18      26673.574      102911.61    
     30000   30000          0.19433256     0.25502994     314.7168       293.42741      21.289394      27.938875      297.72348      303.30196      130822.98      129427.09      26640.576      102786.52    
     31000   31000          0.24451644     0.40174155     307.82002      290.92837      16.891652      27.753056      297.63692      104.24616      129928.15      129448.38      26632.831      102815.55    
     32000   32000          0.19291096     0.18580043     313.52977      284.41363      29.116142      28.042947      298.12515      14.93211       129462.42      129393.7       26676.518      102717.18    
     33000   33000          0.24228404     0.14783889     322.02587      276.23296      45.792908      27.942299      296.10188     -105.91032      128896.72      129384.15      26495.474      102888.67    
     34000   34000          0.19815496     0.28926315     303.72869      284.63714      19.091554      27.869517      294.48445     -197.58613      128386.5       129295.85      26350.745      102945.11    
     35000   35000          0.25471515     0.19435422     314.35934      277.4692       36.890139      28.148127      295.65184     -157.87014      128496.2       129222.76      26455.203      102767.56    
     36000   36000          0.21743057     0.41716723     309.43913      294.79556      14.643567      28.09548       296.12652      342.71958      131020.91      129443.61      26497.678      102945.94    
     37000   37000          0.22873131     0.3607131      304.94758      287.09264      17.854939      28.157537      297.40854     -489.15478      127036.5       129287.74      26612.395      102675.34    
     38000   38000          0.23546045     0.28890957     312.82601      289.95824      22.867772      28.058717      296.83995     -335.44409      127736.23      129280.05      26561.517      102718.53    
     39000   39000          0.26812788     0.30588468     310.6377       286.03772      24.599987      28.064069      296.30616     -109.30289      128662.77      129165.81      26513.753      102652.06    
     40000   40000          0.23145235     0.85365252     302.49155      294.85282      7.6387323      28.173501      296.32386      37.717427      129348.78      129175.2       26515.336      102659.86    
     41000   41000          0.24484671     0.16957194     318.84452      277.99241      40.852108      28.292686      295.28044      133.25518      129850.21      129236.93      26421.97       102814.96    
     42000   42000          0.30499658     0.23981155     317.75297      281.57669      36.176274      28.444543      295.44926      23.902885      129425.36      129315.35      26437.077      102878.27    
     43000   43000          0.2264652      0.32124901     307.94601      287.92058      20.025438      28.406802      295.05489      219.58829      130302.19      129291.58      26401.788      102889.79    
     44000   44000          0.25928693     0.36451371     311.73004      291.47449      20.255548      28.475886      296.98987      475.1589       131427.37      129240.54      26574.932      102665.61    
     45000   45000          0.24320942     0.24332118     316.04894      287.59217      28.456773      28.46985       295.58365      370.47748      130929.96      129224.91      26449.102      102775.8     
     46000   46000          0.25199376     0.25144182     311.38856      282.74647      28.642094      28.579359      294.51805      551.10936      131743.13      129206.76      26353.751      102853.01    
     47000   47000          0.27504988     0.22687139     318.18787      283.43615      34.751721      28.664514      296.78623     -124.05701      128680.46      129251.4       26556.71       102694.69    
     48000   48000          0.28180904     0.20245414     319.30242      279.44583      39.856596      28.633335      298.12103      204.25515      130185.94      129245.9       26676.149      102569.75    
     49000   49000          0.29079644     0.2235174      320.70982      283.40279      37.307031      28.675629      294.64845     -524.5837       126768.35      129182.65      26365.42       102817.23    
     50000   50000          0.28677691     0.20501703     319.53342      279.3064       40.227021      28.758328      295.60247     -217.10023      128174.04      129173.2       26450.786      102722.42    
     51000   51000          0.26902212     0.3730968      312.40622      291.69702      20.709206      28.72083       296.04372     -327.19635      127796.33      129302.18      26490.269      102811.91    
     52000   52000          0.30129751     0.22135958     328.11105      288.87258      39.238462      28.828015      296.02997     -411.3054       127409.7       129302.66      26489.039      102813.62    
     53000   53000          0.28823294     0.18913692     316.78653      272.73565      44.050879      28.905953      296.47289      60.405415      129546.97      129268.97      26528.672      102740.3     
     54000   54000          0.3155226      0.21618545     323.04089      280.47564      42.565243      29.16427       296.29866      412.57194      131202.84      129304.06      26513.082      102790.98    
     55000   55000          0.27982701     0.43662103     313.20881      294.47318      18.735634      29.233674      297.84104      650.06375      132364.83      129373.04      26651.095      102721.95    
     56000   56000          0.2592112      0.30284105     319.9802       294.92314      25.057056      29.274604      296.12454     -401.85637      127470.24      129319.71      26497.501      102822.21    
     57000   57000          0.24904463     0.29113064     313.87229      288.8063       25.065986      29.301882      296.86072     -100.78197      128933.47      129397.3       26563.375      102833.92    
     58000   58000          0.27709999     0.15641297     323.77253      271.80192      51.970605      29.335535      295.77732      200.12339      130312.37      129391.34      26466.431      102924.91    
     59000   59000          0.26047332     0.22533144     317.85691      283.94927      33.907637      29.332972      295.71065      98.733216      129751.82      129297.42      26460.466      102836.96    
     60000   60000          0.25116497     0.23706968     312.42235      281.43613      30.986216      29.247281      295.26542     -725.38357      125970.4       129308.84      26420.627      102888.21    
     61000   61000          0.26488601     0.30452986     313.73608      288.36729      25.36879       29.16558       297.0751       125.84674      129983.11      129403.93      26582.558      102821.37    
     62000   62000          0.25908344     0.39241025     307.47254      288.20729      19.265253      29.179337      296.96881     -272.33408      128139.62      129392.99      26573.048      102819.94    
     63000   63000          0.26405533     0.24430709     317.64844      286.05497      31.593465      29.230643      297.96435     -159.47429      128640.34      129374.28      26662.129      102712.16    
     64000   64000          0.25967683     0.26937152     311.74324      283.55513      28.188101      29.240466      297.51492      223.83607      130387.48      129357.32      26621.913      102735.41    
     65000   65000          0.28154792     0.17378992     323.49466      276.16345      47.331207      29.215938      297.54113     -86.560452      128996.85      129395.23      26624.26       102770.97    
     66000   66000          0.26885231     0.2711187      313.42397      284.41724      29.006726      29.251248      295.38599      284.6006       130586.91      129277.09      26431.415      102845.68    
     67000   67000          0.26739933     0.24168116     317.66401      285.19036      32.473651      29.35037       296.29713      37.762606      129532.62      129358.83      26512.945      102845.88    
     68000   68000          0.26171406     0.37761154     305.81533      285.42466      20.390668      29.420473      297.81947      287.60724      130757.71      129434.05      26649.165      102784.88    
     69000   69000          0.25509846     0.30833002     312.16915      287.81967      24.34948       29.430501      298.38736     -316.69604      127881.34      129338.87      26699.981      102638.89    
     70000   70000          0.23224765     0.25640031     310.11167      283.48412      26.627552      29.396691      297.51369      149.08772      130124.33      129438.19      26621.804      102816.38    
     71000   71000          0.25931356     0.1960848      318.20949      279.3915       38.817987      29.352947      296.35226      634.21531      132159.69      129240.83      26517.877      102722.96    
     72000   72000          0.26303851     0.29035308     306.94876      280.38112      26.567645      29.326494      294.84695     -402.04021      127285.42      129135.73      26383.181      102752.55    
     73000   73000          0.25207604     0.40828606     313.52333      295.43453      18.088797      29.298317      297.4013       237.49929      130344.48      129251.44      26611.747      102639.69    
     74000   74000          0.26874732     0.1710243      321.94068      275.92384      46.016844      29.284007      296.82799      271.37219      130453.52      129204.59      26560.447      102644.14    
     75000   75000          0.25112967     0.82569235     301.61262      292.69924      8.9133809      29.306415      296.21935      412.93425      131033.19      129132.74      26505.985      102626.76    
     76000   76000          0.26654083     0.24294297     320.64845      288.54929      32.099161      29.2573        296.53702      399.41356      131041.74      129203.52      26534.41       102669.11    
     77000   77000          0.26443527     0.20631061     323.26706      285.71284      37.554219      29.299547      295.7758      -355.46226      127660.39      129296.34      26466.296      102830.04    
     78000   78000          0.23975622     0.43642741     313.22302      297.10105      16.12197       29.346766      296.67378      305.85771      130690.39      129282.74      26546.648      102736.09    
     79000   79000          0.24446278     0.35345981     311.46503      291.21795      20.247085      29.274521      297.46501      305.94527      130587.13      129179.07      26617.448      102561.63    
     80000   80000          0.25129542     0.23265283     313.80842      282.18737      31.62105       29.275212      295.27683      169.33001      129861.93      129082.62      26421.648      102660.97    
     81000   81000          0.2632348      0.1916899      320.81101      280.58224      40.228766      29.294941      296.19743      472.07328      131434.88      129262.26      26504.023      102758.23    
     82000   82000          0.26094383     0.20847927     314.83175      278.1112       36.720554      29.337633      293.75061     -140.14642      128554.34      129199.34      26285.08       102914.26    
     83000   83000          0.26127247     0.23624383     320.55159      288.04125      32.510333      29.396001      296.10214     -458.40197      127287.47      129397.17      26495.497      102901.67    
     84000   84000          0.26359839     0.21982425     312.38962      277.11335      35.276267      29.418157      295.79772     -295.04897      127924.8       129282.71      26468.257      102814.45    
     85000   85000          0.27135633     0.23459316     316.30663      282.28606      34.020572      29.411489      297.72638      394.75613      131181.95      129365.16      26640.835      102724.32    
     86000   86000          0.26045507     0.30006892     320.10528      294.52086      25.584416      29.475672      298.63941      383.66473      131198.73      129432.99      26722.534      102710.45    
     87000   87000          0.27975039     0.26720805     319.17463      288.30913      30.865505      29.48168       297.42964      123.76721      129971.52      129401.91      26614.283      102787.62    
     88000   88000          0.27250379     0.2410885      317.84623      284.5539       33.292333      29.454265      297.62901      92.812869      129970.27      129543.11      26632.123      102910.99    
     89000   89000          0.27021637     0.21199834     324.57874      287.05581      37.522925      29.438624      297.56626     -219.25917      128553.95      129563.05      26626.508      102936.54    
     90000   90000          0.26143673     0.32821492     303.05135      279.60326      23.448097      29.437392      296.24602      78.343061      129799.31      129438.75      26508.371      102930.38    
     91000   91000          0.25231583     0.21645869     311.90861      277.62284      34.285776      29.413351      297.38285     -161.84182      128691.66      129436.51      26610.096      102826.41    
     92000   92000          0.25240963     0.42117652     302.04528      284.4274       17.617879      29.397599      297.17826      340.77899      130937.58      129369.21      26591.79       102777.42    
     93000   93000          0.24995536     0.36856331     310.00791      290.07849      19.929417      29.386255      296.63557     -182.73269      128627.01      129468         26543.229      102924.77    
     94000   94000          0.25697658     0.18190428     326.48645      284.96337      41.523071      29.392657      297.70256      245.67628      130618.54      129487.86      26638.704      102849.16    
     95000   95000          0.26347412     0.22840348     321.69839      287.79742      33.900967      29.388461      296.13602      445.31973      131401.81      129352.31      26498.528      102853.79    
     96000   96000          0.25852745     0.26916756     313.42669      285.19685      28.229835      29.391678      296.92152      524.93854      131829.68      129413.76      26568.816      102844.94    
     97000   97000          0.25249663     0.27301277     315.52846      288.36733      27.161122      29.368048      296.78694      428.88074      131558.51      129584.67      26556.773      103027.89    
     98000   98000          0.26084678     0.25795188     316.46493      286.79225      29.672685      29.343375      297.0791      -117.99507      128850.36      129393.41      26582.916      102810.5     
     99000   99000          0.26006985     0.27761636     319.2728       291.81188      27.460921      29.313667      298.36556     -288.2918       128258.65      129585.45      26698.03       102887.42    
    100000   100000         0.26063177     0.22060653     327.817        293.21199      34.605014      29.290719      297.74794     -487.10733      127087.87      129329.69      26642.764      102686.92    
    101000   101000         0.25732258     0.17890688     316.52177      274.40367      42.118102      29.283159      297.32091     -391.32258      127587.47      129388.46      26604.553      102783.9     
    102000   102000         0.25439354     0.27269819     309.96786      282.64135      27.326506      29.292759      298.54856     -104.42352      129101.89      129582.48      26714.405      102868.07    
    103000   103000         0.25893614     0.55774869     299.22653      285.62178      13.604753      29.304651      297.55179     -6.7285826      129458.91      129489.88      26625.213      102864.67    
    104000   104000         0.27140268     0.21651718     318.92275      282.16586      36.75689       29.32358       299.70446     -468.04892      127408.92      129563.03      26817.835      102745.19    
    105000   105000         0.25271924     0.22847449     311.94608      279.46679      32.479291      29.363373      297.6916       688.11794      132842.41      129675.48      26637.723      103037.75    
    106000   106000         0.25296121     0.18729936     323.85959      284.1629       39.69669       29.39251       299.96462     -329.29015      128124.37      129639.86      26841.115      102798.75    
    107000   107000         0.25301098     0.17954455     317.6168       276.14625      41.470551      29.428807      297.58015      543.45922      132120.88      129619.71      26627.75       102991.96    
    108000   108000         0.25705508     0.23967398     314.95373      283.39326      31.560465      29.426465      297.7329      -154.68295      128849.31      129561.21      26641.419      102919.79    
    109000   109000         0.25663941     0.20467884     314.72964      277.82003      36.909611      29.436695      297.76678      185.86088      130320.12      129464.73      26644.45       102820.28    
    110000   110000         0.26080142     0.1838921      323.18677      281.49351      41.693264      29.398082      298.18646      3.9722675      129712.86      129694.57      26682.004      103012.57    
    111000   111000         0.25681372     0.2041009      318.04411      281.03202      37.012088      29.415097      299.57394      103.62791      130144.3       129667.37      26806.157      102861.22    
    112000   112000         0.25142936     1.7680536      302.87765      298.69697      4.1806849      29.398614      298.80252      372.6068       131413.23      129698.38      26737.13       102961.25    
    113000   113000         0.25632391     0.23009442     310.26003      277.53437      32.725661      29.376861      298.27995      369.08368      131383.49      129684.85      26690.37       102994.48    
    114000   114000         0.24937004     0.39094907     305.11586      286.3659       18.749965      29.395197      300.32361      78.309271      130077.35      129716.94      26873.238      102843.71    
    115000   115000         0.25009027     0.8388952      307.85183      299.0887       8.7631295      29.394775      299.75826      157.41391      130432.05      129707.58      26822.65       102884.93    
    116000   116000         0.25853869     0.23557964     317.52303      285.23438      32.288655      29.421321      300.93967     -196.85881      128929.05      129835.06      26928.364      102906.69    
    117000   117000         0.24862724     0.5222027      306.99807      292.995        14.003066      29.411254      297.60033      591.94689      132485.25      129760.93      26629.556      103131.37    
    118000   118000         0.26143275     0.23286177     313.15852      280.14254      33.015979      29.40779       300.37773      449.78478      131571.98      129501.93      26878.081      102623.85    
    119000   119000         0.25581778     0.17876405     315.20559      273.06177      42.14382       29.449869      295.80122     -24.442538      129295.41      129407.91      26468.57       102939.34    
    120000   120000         0.25924171     0.22948634     320.56464      287.27156      33.29308       29.471751      298.44051     -213.423        128523.52      129505.76      26704.736      102801.02    
    121000   121000         0.26130852     0.25883202     316.70984      286.95533      29.754503      29.47251       297.81253     -364.78146      127906.05      129584.89      26648.544      102936.34    
    122000   122000         0.25119998     0.27414105     309.93364      282.92306      27.010585      29.477351      297.02993     -238.63794      128371.48      129469.77      26578.516      102891.25    
    123000   123000         0.25821539     0.23252079     322.51758      289.78776      32.729824      29.472932      297.83668     -173.12712      128793.87      129590.65      26650.706      102939.94    
    124000   124000         0.25492903     0.24942909     316.04029      285.91023      30.130055      29.480017      297.56293      280.17699      130636.71      129347.25      26626.209      102721.04    
    125000   125000         0.26150044     0.389285       307.5967       287.79472      19.801971      29.478384      297.29662      249.97554      130647.24      129496.77      26602.38       102894.39    
    126000   126000         0.26797592     0.21681468     310.96943      274.54209      36.427338      29.472729      294.78332      94.207653      129829.03      129395.46      26377.488      103017.97    
    127000   127000         0.26635566     0.27221995     314.25621      285.39272      28.863495      29.498976      295.86642      158.57429      130001.75      129271.94      26474.405      102797.54    
    128000   128000         0.26455711     0.17897761     321.95315      278.30858      43.644571      29.526331      296.70109      730.37489      132741.01      129379.6       26549.092      102830.51    
    129000   129000         0.25917314     0.25804555     315.41416      285.73135      29.68281       29.553668      295.82524      315.79316      130751.62      129298.24      26470.719      102827.52    
    130000   130000         0.25705815     0.38122832     314.63603      294.69337      19.942659      29.575823      297.60666      437.13687      131296.48      129284.64      26630.123      102654.52    
    131000   131000         0.25399124     0.5187417      308.19531      293.72332      14.471989      29.557021      296.45206      351.20478      130889.03      129272.68      26526.808      102745.87    
    132000   132000         0.25592536     0.17538812     318.87647      275.71409      43.162376      29.579592      296.10103     -318.98604      127922.04      129390.11      26495.397      102894.71    
    133000   133000         0.25165004     0.30254132     309.61694      285.02636      24.590583      29.563546      297.38003     -156.16102      128670.47      129389.17      26609.844      102779.32    
    134000   134000         0.24404001     0.50339598     312.89803      298.56548      14.33255       29.564611      299.49643     -276.44941      128253.06      129525.37      26799.221      102726.15    
    135000   135000         0.24944255     0.21419237     322.41385      288.00996      34.403895      29.54208       299.87544      263.4647       130752.94      129540.39      26833.135      102707.26    
    136000   136000         0.24417175     0.27964779     312.74697      286.9586       25.788364      29.53519       299.21384     -642.39414      126816.81      129773.3       26773.935      102999.37    
    137000   137000         0.24224543     0.20400213     321.78995      286.73921      35.050742      29.51728       299.31786     -92.651728      129246.25      129672.66      26783.242      102889.42    
    138000   138000         0.24891167     0.18587969     322.82175      283.33225      39.489501      29.489562      299.9981       453.12152      131675.93      129590.53      26844.111      102746.42    
    139000   139000         0.24684263     0.44560868     300.10378      283.77789      16.325891      29.472052      297.16455      33.188462      129575.56      129422.82      26590.563      102832.26    
    140000   140000         0.24732651     0.92207243     308.09256      300.19435      7.8982121      29.445786      298.80638      348.33744      131052.93      129449.78      26737.474      102712.3     
    141000   141000         0.25356763     0.20659902     316.66894      280.52612      36.142819      29.448045      297.16734     -107.92746      128941.58      129438.29      26590.812      102847.48    
    142000   142000         0.24324035     0.30027805     318.13005      294.28228      23.847765      29.439855      300.90019     -50.297824      129356.21      129587.7       26924.831      102662.87    
    143000   143000         0.24831224     0.30754852     308.0163       284.25311      23.763196      29.432041      297.47366      265.07225      130749.97      129530.03      26618.222      102911.81    
    144000   144000         0.25719746     0.23961497     317.59139      285.94479      31.646598      29.483179      298.61682     -599.6596       126800.82      129560.64      26720.513      102840.13    
    145000   145000         0.24994893     0.41097807     314.46953      296.54446      17.925072      29.473267      299.29907     -26.438814      129487.44      129609.12      26781.561      102827.56    
    146000   146000         0.25552705     0.29084705     310.32243      284.41764      25.904787      29.485454      294.47545      349.46253      130978.68      129370.35      26349.939      103020.41    
    147000   147000         0.25734113     0.19694793     323.68097      285.14831      38.532659      29.489757      296.87226     -624.54332      126472.21      129346.55      26564.408      102782.14    
    148000   148000         0.25402377     0.21191671     326.41173      291.0629       35.348827      29.489395      299.23812     -371.2284       127756.91      129465.42      26776.107      102689.31    
    149000   149000         0.25532018     0.25229797     319.05342      289.19856      29.854862      29.501472      298.16356      45.818726      129719.63      129508.76      26679.955      102828.81    
    150000   150000         0.25213048     0.36572716     306.65338      286.3061       20.347278      29.514687      297.15472     -20.396364      129419.66      129513.53      26589.682      102923.85    
    151000   151000         0.25321698     0.22947178     307.33223      274.78415      32.548081      29.495913      295.65875      375.84192      131116.39      129386.65      26455.822      102930.83    
    152000   152000         0.25924445     0.21166334     319.39963      283.25398      36.145652      29.511565      299.3295       747.29649      133012.99      129573.7       26784.284      102789.42    
    153000   153000         0.25455394     0.20283663     321.21097      284.17839      37.032578      29.508729      296.39002     -257.66891      128383.2       129569.07      26521.257      103047.82    
    154000   154000         0.25572326     0.31597972     313.69046      289.82689      23.863566      29.486574      298.85782      94.228345      129993.02      129559.36      26742.078      102817.28    
    155000   155000         0.25317981     0.35142728     308.96208      287.72217      21.239917      29.482155      297.31431      176.48944      130332.05      129519.79      26603.963      102915.83    
    156000   156000         0.25839663     0.28950164     321.11599      294.80115      26.314847      29.482549      297.89055     -1.2746388      129633.79      129639.66      26655.526      102984.13    
    157000   157000         0.25922149     0.33109554     307.33063      284.25772      23.072905      29.470303      297.06278      384.88468      131397.54      129626.19      26581.456      103044.73    
    158000   158000         0.2594707      0.17481535     330.64827      286.88063      43.767642      29.487936      298.7197      -691.02905      126474.59      129654.91      26729.718      102925.2     
    159000   159000         0.25341591     0.17077227     320.75383      276.98446      43.769366      29.495362      298.43344      26.728806      129688.04      129565.02      26704.104      102860.92    
    160000   160000         0.25257331     0.27401321     307.16707      279.97619      27.190882      29.499003      297.52031      201.05408      130419.16      129493.85      26622.396      102871.46    
    161000   161000         0.25520292     0.21518986     312.55957      277.58659      34.972984      29.489598      297.85018      304.41827      130826.83      129425.8       26651.914      102773.89    
    162000   162000         0.2540157      0.18131421     314.78974      273.4336       41.356136      29.519653      298.79021     -166.37646      128706.65      129472.36      26736.028      102736.33    
    163000   163000         0.25118368     0.26929407     310.24161      282.67264      27.568976      29.556704      298.3137      -71.311803      129317.48      129645.68      26693.389      102952.29    
    164000   164000         0.25568        0.21699918     315.3742       280.55873      34.815464      29.54837       297.9822       226.48611      130643.37      129601.01      26663.727      102937.28    
    165000   165000         0.25716165     0.25817533     312.12893      282.68312      29.445815      29.561885      296.89207     -380.31299      127661.65      129411.97      26566.18       102845.79    
    166000   166000         0.25457672     0.17045797     322.10755      277.95311      44.154447      29.564674      298.03451     -242.72605      128465.55      129582.65      26668.407      102914.25    
    167000   167000         0.25159361     0.23694668     320.61991      289.23253      31.387373      29.560106      299.26115     -397.31316      127834.29      129662.85      26778.168      102884.68    
    168000   168000         0.25236224     0.25951969     313.5646       284.8477       28.716904      29.531368      298.75617      688.27916      132806.52      129638.85      26732.982      102905.87    
    169000   169000         0.2508846      0.38157957     305.25536      285.82418      19.431185      29.553599      298.09808      116.83963      130188.27      129650.53      26674.096      102976.44    
    170000   170000         0.25169529     0.26839565     315.89844      288.1469       27.751534      29.59289       299.36375      1029.5446      134370.95      129632.67      26787.349      102845.32    
    171000   171000         0.24850462     0.25778221     312.94865      284.43309      28.515558      29.580149      296.60782     -590.84737      126861.7       129580.96      26540.745      103040.21    
    172000   172000         0.2498198      0.30733393     315.25456      291.20709      24.047468      29.583736      298.29933      203.67711      130486.63      129549.25      26692.104      102857.14    
    173000   173000         0.25179517     0.3352348      310.94909      288.6958       22.253283      29.627553      298.24727      258.99586      130888.99      129697.02      26687.445      103009.57    
    174000   174000         0.25072675     0.21941639     318.86488      285.01613      33.848744      29.621767      297.41996     -444.01305      127477.41      129520.9       26613.417      102907.48    
    175000   175000         0.25376668     0.17333443     327.85884      284.4634       43.395438      29.641099      299.18454      265.99457      130952.73      129728.54      26771.313      102957.23    
    176000   176000         0.25741649     0.18820634     314.01872      273.47353      40.545189      29.644027      295.58936     -475.33839      127383.98      129571.63      26449.613      103122.02    
    177000   177000         0.25193688     0.51117875     310.72562      296.12291      14.602712      29.628834      298.42387      142.34433      130192.79      129537.68      26703.248      102834.43    
    178000   178000         0.25151163     0.40834505     312.95009      294.69357      18.256515      29.640607      298.14921      384.76715      131398         129627.19      26678.671      102948.52    
    179000   179000         0.25146614     0.35097325     314.57701      293.35078      21.226238      29.625625      297.76584     -248.39096      128517.23      129660.4       26644.366      103016.04    
    180000   180000         0.24786278     0.17151473     320.38525      277.605        42.780253      29.602845      297.94071     -18.676856      129442.41      129528.36      26660.014      102868.35    
    181000   181000         0.24901294     0.18563071     316.95187      277.25434      39.697538      29.593169      299.17332     -130.27972      128892.24      129491.83      26770.309      102721.52    
    182000   182000         0.25117266     0.18800249     319.39419      279.84288      39.551318      29.604124      297.71933     -248.37644      128401.83      129544.93      26640.205      102904.73    
    183000   183000         0.2477964      0.28525887     309.17895      283.46688      25.712071      29.599286      297.52749      309.56439      130871.76      129447.05      26623.038      102824.01    
    184000   184000         0.25383373     0.3821218      321.49075      301.8355       19.655245      29.589044      300.7832      -137.02867      128918.67      129549.32      26914.363      102634.95    
    185000   185000         0.25809155     0.22539857     308.13299      274.25673      33.876257      29.585084      296.08863     -383.95977      127691.76      129458.86      26494.288      102964.57    
    186000   186000         0.25252331     0.21807087     320.04203      285.74784      34.29419       29.61534       297.99419      511.37352      131747.86      129394.36      26664.799      102729.56    
    187000   187000         0.25388894     0.20897935     321.87652      285.89753      35.97898       29.614775      297.77251      109.88886      130147.54      129641.8       26644.963      102996.84    
    188000   188000         0.25404785     0.34146816     307.33481      285.31633      22.018485      29.595258      298.05939     -80.074609      129186.28      129554.81      26670.634      102884.17    
    189000   189000         0.25076454     0.1928989      315.86719      277.41631      38.450884      29.578078      297.12246      206.11721      130352.51      129403.89      26586.797      102817.09    
    190000   190000         0.25282714     0.31718895     307.17428      283.60634      23.567941      29.567595      296.00873      89.118154      129890.37      129480.22      26487.138      102993.08    
    191000   191000         0.25308614     0.24764539     328.23613      298.01857      30.217556      29.56795       299.22899      477.94529      131849.62      129649.97      26775.29       102874.68    
    192000   192000         0.25231789     0.25372548     314.06787      284.6674       29.400475      29.564489      299.3074      -87.313738      129230.06      129631.9       26782.307      102849.59    
    193000   193000         0.25013457     0.20519308     318.78337      282.73626      36.047111      29.570554      297.50543     -0.49481495     129560.9       129563.18      26621.064      102942.11    
    194000   194000         0.25247494     0.25066262     318.08992      288.30102      29.788894      29.575063      298.51266     -200.58455      128769.46      129692.61      26711.192      102981.42    
    195000   195000         0.25667893     0.29181799     313.32949      287.31737      26.01212       29.573151      297.74194     -160.7945       128876.8       129616.83      26642.228      102974.6     
    196000   196000         0.25795096     0.30901172     314.28415      289.59066      24.693485      29.581499      298.13748      361.91819      131397.2       129731.55      26677.621      103053.92    
    197000   197000         0.25409277     0.21975908     324.2978       290.10777      34.190036      29.570188      298.61729      134.73089      130327.6       129707.53      26720.555      102986.97    
    198000   198000         0.25146915     0.23250631     317.53915      285.56817      31.970983      29.560108      299.26521      146.47156      130337.17      129663.06      26778.531      102884.53    
    199000   199000         0.25668386     0.25300509     321.41558      291.43338      29.982207      29.552504      300.04272     -293.02694      128210.99      129559.59      26848.104      102711.49    
    200000   200000         0.25300575     0.22424943     321.75869      288.38167      33.377014      29.583424      300.56072     -84.57769       129373.42      129762.68      26894.455      102868.22    
    201000   201000         0.24722522     0.35778455     305.25799      284.82766      20.430327      29.566787      296.57125     -36.675454      129254.15      129422.94      26537.474      102885.46    
    202000   202000         0.25253107     0.28185909     319.59836      293.11697      26.481385      29.556836      300.28957     -370.06545      127932.59      129635.74      26870.192      102765.55    
    203000   203000         0.25283453     0.20792431     314.4712       278.49019      35.981011      29.589815      298.0421       88.560684      129747.36      129339.77      26669.086      102670.69    
    204000   204000         0.25277991     0.42634771     302.05582      284.50203      17.553795      29.606864      295.15392      38.110536      129609.08      129433.68      26410.65       103023.04    
    205000   205000         0.25779016     0.19016837     322.63518      282.49379      40.141389      29.611769      298.62341      23.167733      129623.33      129516.71      26721.102      102795.61    
    206000   206000         0.25098015     0.21927671     321.59289      287.68687      33.906023      29.623065      297.78197      423.14979      131323.85      129376.39      26645.809      102730.58    
    207000   207000         0.25375001     0.45169701     313.08364      296.44165      16.641994      29.624191      298.96531      357.67924      131081.14      129434.99      26751.696      102683.3     
    208000   208000         0.25497159     0.3934324      309.9362       290.74991      19.186286      29.605285      296.64996      154.34941      130063.62      129353.26      26544.516      102808.74    
    209000   209000         0.25492319     0.31317709     309.02632      284.94927      24.077054      29.579034      297.31974     -549.44475      126831.84      129360.55      26604.449      102756.1     
    210000   210000         0.25950301     0.18239948     329.85797      287.77588      42.082096      29.578664      298.02403     -136.60238      128866.31      129495         26667.47       102827.53    
    211000   211000         0.25455128     0.28682161     315.0513       288.78472      26.26657       29.596473      298.42607     -132.88258      129015.25      129626.82      26703.444      102923.37    
    212000   212000         0.25423642     0.40607392     307.22542      288.69836      18.527063      29.591973      296.47607      276.52224      130513.93      129241.29      26528.956      102712.33    
    213000   213000         0.25802896     0.16824081     337.05243      291.67167      45.380766      29.589302      298.80906     -144.35755      128798.69      129463.06      26737.714      102725.35    
    214000   214000         0.25626251     0.42543529     301.73212      283.90175      17.830364      29.601155      296.44813     -7.8150314      129225.05      129261.02      26526.457      102734.56    
    215000   215000         0.25541221     0.26315524     314.56326      285.81972      28.743539      29.614923      297.70628      29.851826      129522.06      129384.67      26639.036      102745.63    
    216000   216000         0.25398849     0.48353923     302.17805      286.61244      15.565613      29.633566      297.28617      55.829659      129700.44      129443.49      26601.445      102842.05    
    217000   217000         0.25206698     0.38675521     307.13741      287.82404      19.313372      29.633184      297.58005      60.319204      129852.74      129575.13      26627.742      102947.39    
    218000   218000         0.25550874     0.16831484     318.83687      273.86052      44.976348      29.627897      297.03251     -748.8294       126110.39      129556.73      26578.748      102977.98    
    219000   219000         0.25344065     0.22840584     315.09593      282.22563      32.870295      29.623374      299.12854      106.1267       130222.81      129734.38      26766.302      102968.08    
    220000   220000         0.25370619     0.20394223     314.34989      277.49743      36.852459      29.623923      297.72426     -124.27205      129174.18      129746.12      26640.646      103105.47    
    221000   221000         0.25421407     0.31468265     301.95297      278.03127      23.921701      29.611832      299.83498     -451.51644      127549.23      129627.25      26829.515      102797.73    
    222000   222000         0.25851048     0.15543507     327.32588      278.09299      49.232892      29.602352      298.36059     -85.910796      129304.13      129699.52      26697.585      103001.94    
    223000   223000         0.25901038     0.2735581      312.18158      284.13382      28.04776       29.623106      298.72576      381.02219      131419.68      129666.1       26730.261      102935.84    
    224000   224000         0.25639957     0.19213305     323.5489       284.02602      39.522887      29.616481      298.847        80.741494      130001.59      129630         26741.11       102888.89    
    225000   225000         0.2567667      0.34616157     309.01461      287.04966      21.96495       29.612178      298.43254     -2.5774037      129526.36      129538.22      26704.023      102834.2     
    226000   226000         0.25833798     0.39312268     302.09857      282.63981      19.458764      29.611137      297.21416      591.09365      132347.03      129626.63      26595.001      103031.63    
    227000   227000         0.26026235     0.26599566     314.18107      285.20696      28.974108      29.612378      298.18896     -75.692213      129262.23      129610.59      26682.228      102928.36    
    228000   228000         0.26192237     0.19806989     312.12751      272.94396      39.183551      29.631228      297.5675      -371.66327      127940.6       129651.11      26626.619      103024.49    
    229000   229000         0.2560096      0.30172048     320.82562      295.69054      25.135078      29.622982      299.4066      -448.05247      127409         129471.08      26791.183      102679.89    
    230000   230000         0.25828366     0.20829016     316.21634      279.50495      36.711384      29.605513      298.1982      -181.67995      128611.95      129448.09      26683.055      102765.04    
    231000   231000         0.25653903     0.19910526     322.60933      284.48179      38.12754       29.591574      297.38185      5.4259268      129464.89      129439.91      26610.007      102829.91    
    232000   232000         0.25669891     0.2606096      315.24006      286.0764       29.163662      29.607957      295.88032     -96.199233      128806.39      129249.13      26475.648      102773.48    
    233000   233000         0.25693735     0.20148483     313.61454      275.84408      37.770459      29.618796      297.39198      149.47313      130004.05      129316.13      26610.913      102705.22    
    234000   234000         0.25440597     0.31542024     307.32664      283.44209      23.884554      29.612795      296.62992     -504.15537      126982.77      129303.04      26542.723      102760.32    
    235000   235000         0.25362404     0.30273246     314.69258      289.89466      24.797926      29.599469      296.29226     -362.05125      127744.53      129410.8       26512.509      102898.29    
    236000   236000         0.25630889     0.19193742     314.43802      274.89718      39.540846      29.610241      298.059       -390.5867       127679.18      129476.78      26670.599      102806.18    
    237000   237000         0.25593844     0.41770764     308.33068      290.19317      18.137513      29.601563      297.90355     -751.84963      125929.6       129389.84      26656.688      102733.15    
    238000   238000         0.25470242     0.39404039     313.5103       294.37091      19.139391      29.609821      297.30959      79.881271      129987.36      129619.72      26603.541      103016.18    
    239000   239000         0.25568407     0.21515243     309.68349      274.51183      35.17166       29.596166      295.95164     -467.97364      127107.52      129261.28      26482.03       102779.25    
    240000   240000         0.25427777     0.48661809     309.07587      293.61617      15.459695      29.585628      297.34656     -4.442235       129370.39      129390.83      26606.849      102783.98    
    241000   241000         0.25418979     0.31862435     314.11741      290.52024      23.597169      29.578815      297.51066      515.94825      131800.74      129426.19      26621.533      102804.66    
    242000   242000         0.2561482      0.26195012     320.10789      291.19141      28.916476      29.571453      296.93618     -232.73786      128391.16      129462.29      26570.128      102892.16    
    243000   243000         0.25332975     0.24234774     308.31332      277.40883      30.904497      29.564767      296.48911     -63.32837       128979.29      129270.75      26530.123      102740.63    
    244000   244000         0.25004269     0.49623762     308.10763      293.21794      14.889689      29.550249      298.69025     -170.84564      128531.59      129317.87      26727.083      102590.79    
    245000   245000         0.25336942     0.19995154     319.95051      282.53223      37.418274      29.529377      296.10573      321.34817      130699.04      129220.1       26495.818      102724.28    
    246000   246000         0.25467871     0.31453936     308.60176      284.69606      23.905697      29.524582      296.47917      196.00232      130310.34      129408.28      26529.234      102879.05    
    247000   247000         0.25332383     0.24660002     300.58275      270.26642      30.316326      29.51166       294.51848     -86.54847       128906.98      129305.3       26353.79       102951.51    
    248000   248000         0.25592806     0.28823651     317.02845      290.84045      26.187998      29.49398       298.43149      149.29712      130156.25      129469.14      26703.929      102765.21    
    249000   249000         0.258571       0.34221395     308.48176      286.17905      22.302709      29.517224      295.5754       564.85816      131936.37      129336.72      26448.363      102888.35    
    250000   250000         0.25831433     0.21097138     321.94624      285.77682      36.16942       29.540414      297.51594     -178.0306       128761.85      129581.2       26622.005      102959.19    
    251000   251000         0.25660384     0.26509179     320.59312      291.97568      28.617435      29.564043      298.401       -43.151902      129391.85      129590.45      26701.201      102889.25    
    252000   252000         0.2579685      0.16992772     322.09476      277.23625      44.858506      29.548971      295.40899      183.78842      130267.15      129421.3       26433.473      102987.83    
    253000   253000         0.25165659     0.40318853     307.93117      289.49437      18.436796      29.538288      297.3382      -168.99462      128774.26      129552.02      26606.1        102945.92    
    254000   254000         0.2512331      0.22812272     320.06302      287.54695      32.516071      29.52499       297.63373     -422.9327       127733.72      129680.19      26632.545      103047.64    
    255000   255000         0.24963767     0.22923609     315.12838      282.98946      32.138924      29.512379      297.9613       191.53394      130532.12      129650.62      26661.856      102988.77    
    256000   256000         0.24982352     0.19393078     320.12787      282.11877      38.009098      29.505365      298.45007      708.07637      132774.37      129515.59      26705.592      102810       
    257000   257000         0.25262258     0.25490595     311.52722      282.29786      29.229361      29.493556      298.12544      17.302671      129587.56      129507.93      26676.544      102831.38    
    258000   258000         0.25539967     0.18446572     314.45191      273.62156      40.830355      29.490254      295.87941      510.20877      131795.5       129447.37      26475.566      102971.8     
    259000   259000         0.25290524     0.19653078     325.52707      287.57658      37.950495      29.491048      297.30507     -111.5119       129019.02      129532.23      26603.136      102929.1     
    260000   260000         0.25267282     0.19362231     316.76553      278.27334      38.49219       29.496433      297.07299     -144.80335      128779.15      129445.58      26582.369      102863.21    
    261000   261000         0.25242143     0.26485752     316.9418       288.84838      28.093418      29.4775        297.48947     -32.626842      129353.95      129504.11      26619.637      102884.48    
    262000   262000         0.2535561      0.29152028     316.37615      290.73519      25.640959      29.480101      298.99607     -163.07712      128658.29      129408.82      26754.449      102654.38    
    263000   263000         0.25327427     0.32657098     311.06292      288.20069      22.862232      29.478483      297.09561      107.65106      130050.3       129554.85      26584.393      102970.46    
    264000   264000         0.25408147     0.15596952     328.65642      280.62166      48.034759      29.486441      297.88        -249.40805      128341.27      129489.13      26654.582      102834.54    
    265000   265000         0.2557372      0.20971466     316.85455      280.91883      35.93572       29.468718      296.64631     -425.42399      127457.67      129415.6       26544.189      102871.41    
    266000   266000         0.2567263      0.31663339     308.47559      284.5845       23.891094      29.466082      296.39948     -499.99726      126959.07      129260.21      26522.103      102738.11    
    267000   267000         0.2553783      0.42849689     298.27041      280.70538      17.565029      29.472201      296.98545     -390.37814      127395.75      129192.39      26574.536      102617.85    
    268000   268000         0.25963698     0.23680229     307.98749      275.68917      32.298321      29.457731      296.14479     -140.19578      128406.01      129051.24      26499.314      102551.92    
    269000   269000         0.25777031     0.31121389     315.68196      291.301        24.380962      29.435872      295.86787     -378.66567      127601.92      129344.66      26474.535      102870.12    
    270000   270000         0.25693422     0.38015592     304.58714      284.68769      19.899444      29.442911      295.63508      532.47032      131701.3       129250.71      26453.704      102797       
    271000   271000         0.2573638      0.14712659     326.16639      274.64213      51.524254      29.454756      296.77956     -179.46931      128352.59      129178.56      26556.113      102622.44    
    272000   272000         0.25872659     0.23061975     312.70297      279.65418      33.048786      29.458521      298.1507      -25.055516      129332.24      129447.55      26678.804      102768.75    
    273000   273000         0.25756828     0.32698595     300.1123       276.89706      23.215241      29.47202       296.27627      91.813246      129735.51      129312.96      26511.078      102801.88    
    274000   274000         0.25767164     0.29974713     312.86983      287.53327      25.336562      29.473797      296.86495      646.55112      132305.73      129330.11      26563.754      102766.35    
    275000   275000         0.25652611     0.24894967     323.12904      292.75022      30.378815      29.481584      299.34903     -413.26254      127659.66      129561.62      26786.032      102775.59    
    276000   276000         0.25683917     0.25756869     308.60263      279.20146      29.401168      29.484679      296.69074     -38.105975      129200.63      129376.01      26548.166      102827.84    
    277000   277000         0.25967507     0.1658187      319.18722      273.01252      46.174697      29.485419      297.51708     -221.92509      128541.47      129562.84      26622.107      102940.73    
    278000   278000         0.2561247      0.18553752     315.73391      275.01868      40.715225      29.494235      299.3642      -121.51401      128871.41      129430.66      26787.39       102643.27    
    279000   279000         0.25764646     0.43242015     314.0322       296.45415      17.57805       29.502067      299.41266      250.059        130796.6       129645.76      26791.725      102854.03    
    280000   280000         0.25935746     0.31401442     318.81966      294.44611      24.37355       29.510028      299.57906      194.50863      130539.61      129644.42      26806.615      102837.81    
    281000   281000         0.2585424      0.33383594     320.0652       297.21541      22.849787      29.504175      297.84881      700.9527       133039.24      129813.24      26651.791      103161.45    
    282000   282000         0.26056563     0.25088095     311.27006      280.61997      30.650091      29.510891      299.49256      225.56003      130773.99      129735.9       26798.875      102937.02    
    283000   283000         0.2571172      0.225016       317.15583      283.44258      33.713245      29.504131      297.99999      186.36671      130465.62      129607.91      26665.318      102942.59    
    284000   284000         0.25780581     0.19905009     323.46017      285.24091      38.219258      29.508827      296.5977       260.54792      130613.93      129414.81      26539.84       102874.97    
    285000   285000         0.25784125     0.20022383     316.42409      278.41759      38.006502      29.513537      297.11727      252.42244      130563.72      129401.99      26586.332      102815.66    
    286000   286000         0.25454644     0.28876457     318.54511      292.5342       26.010911      29.507502      299.98474     -5.9245684      129554.68      129581.94      26842.916      102739.03    
    287000   287000         0.25626782     0.22466039     306.7693       273.10879      33.660507      29.508905      296.87381      42.121268      129587.15      129393.29      26564.546      102828.74    
    288000   288000         0.25781904     0.31363051     315.74333      291.4834       24.259926      29.511603      297.60872     -483.65851      127465.02      129690.97      26630.307      103060.66    
    289000   289000         0.25561802     0.17843944     323.74976      281.47482      42.274942      29.510897      298.65875     -334.68584      127998.15      129538.47      26724.265      102814.21    
    290000   290000         0.2558196      0.17365345     325.27094      281.77863      43.492307      29.523106      297.27417     -454.21713      127417.17      129507.62      26600.371      102907.24    
    291000   291000         0.25568454     0.3016082      312.51831      287.4862       25.03211       29.528144      297.98855     -481.57757      127089.44      129305.81      26664.294      102641.51    
    292000   292000         0.25511726     0.29001839     310.19577      284.21856      25.977204      29.530997      298.05034     -451.54384      127284.28      129362.42      26669.824      102692.59    
    293000   293000         0.25251764     0.19588812     321.34919      283.28497      38.064219      29.527951      295.80862     -180.37766      128532.77      129362.93      26469.232      102893.69    
    294000   294000         0.25395951     0.25737652     314.53208      285.40128      29.1308        29.522753      297.18192     -74.417224      129084.28      129426.77      26592.116      102834.66    
    295000   295000         0.2547153      0.26882111     319.60792      291.63376      27.974167      29.523341      296.30055      862.39965      133404.97      129435.94      26513.251      102922.69    
    296000   296000         0.25346006     0.30070999     308.76093      283.88406      24.876864      29.5144        296.8462       513.14394      131793.76      129432.12      26562.076      102870.04    
    297000   297000         0.25568741     0.21592487     307.83045      272.88552      34.944937      29.510569      297.13574      149.12922      130012.58      129326.24      26587.984      102738.25    
    298000   298000         0.25298035     0.34655327     313.56079      292.02691      21.533882      29.498882      299.51157      141.73437      130094.03      129441.72      26800.576      102641.15    
    299000   299000         0.25462772     0.34365596     309.0491       287.18255      21.866547      29.511984      295.82913      74.396243      129583.75      129241.35      26471.067      102770.29    
    300000   300000         0.25219367     0.39149077     310.12852      291.12091      19.007615      29.506314      297.57007     -37.314744      129200.1       129371.83      26626.849      102744.98    
    301000   301000         0.25421783     0.29925028     308.89747      283.83162      25.06585       29.506044      296.22507      300.82463      130690.56      129306.07      26506.496      102799.57    
    302000   302000         0.25529251     0.39429244     311.83154      292.71845      19.113094      29.519661      294.98437      2.5407959      129363.89      129352.2       26395.478      102956.72    
    303000   303000         0.2572216      0.19357525     319.99259      280.78032      39.212269      29.509671      296.65126      128.72947      129843.43      129250.98      26544.633      102706.34    
    304000   304000         0.26024739     0.1685763      324.73445      279.15685      45.577599      29.523074      296.14252     -152.28377      128764.6       129465.46      26499.11       102966.35    
    305000   305000         0.25680524     0.24002753     319.03579      287.43476      31.601031      29.536458      298.19068      192.48857      130295.38      129409.49      26682.381      102727.11    
    306000   306000         0.25420603     0.27715642     305.28957      278.21437      27.075194      29.519613      297.22957     -50.760342      128948.87      129182.49      26596.381      102586.1     
    307000   307000         0.25441285     0.29550933     311.76654      286.35377      25.412774      29.517816      294.61498     -627.63659      126375.26      129263.84      26362.424      102901.42    
    308000   308000         0.25512551     0.18611771     325.0294       284.5664       40.463         29.518337      300.05294     -112.16606      128963.02      129479.24      26849.018      102630.22    
    309000   309000         0.2544786      0.29399824     319.48679      293.93729      25.549503      29.517252      296.59435      75.180579      130029.75      129683.74      26539.54       103144.2     
    310000   310000         0.25503677     0.24960833     325.75249      295.58518      30.167313      29.525203      298.93612     -57.627282      129389.92      129655.13      26749.084      102906.05    
    311000   311000         0.25580015     0.23595206     315.11024      283.09335      32.016893      29.532632      296.70645      85.197892      129775.06      129382.96      26549.571      102833.39    
    312000   312000         0.25674071     0.27426723     318.1427       290.49395      27.648744      29.536198      296.52112      266.47417      130749.5       129523.11      26532.987      102990.12    
    313000   313000         0.25511465     0.43752727     315.62001      298.39817      17.221847      29.535848      298.3013      -33.555513      129167.29      129321.73      26692.28       102629.45    
    314000   314000         0.25654635     0.21916069     318.49615      283.91574      34.580412      29.541122      298.63457     -39.951465      129375.18      129559.05      26722.101      102836.94    
    315000   315000         0.25512615     0.1845453      317.82053      276.96176      40.858775      29.555162      297.04003     -196.02728      128514.16      129416.33      26579.42       102836.91    
    316000   316000         0.25855734     0.14560139     315.66293      263.17741      52.485518      29.556168      296.70192      214.55107      130367.28      129379.85      26549.166      102830.69    
    317000   317000         0.25154958     0.34819633     310.13768      288.7861       21.351581      29.554976      297.73103      877.59382      133523.67      129484.71      26641.252      102843.46    
[...]
   1432000   1432000        0.25246233     0.2584344      317.21398      288.47414      28.739833      29.419683      298.94074     -340.05929      127927.83      129492.89      26749.497      102743.39    
   1433000   1433000        0.25274251     0.40226917     303.16362      284.67862      18.484994      29.421022      297.32724     -141.39761      128667.31      129318.07      26605.12       102712.95    
   1434000   1434000        0.25232776     0.27737537     313.99119      287.22401      26.767176      29.424252      298.18968     -20.503624      129361.96      129456.32      26682.292      102774.03    
   1435000   1435000        0.2518454      0.24539764     316.62611      286.42647      30.199638      29.426465      297.80219     -308.06827      128072.05      129489.87      26647.619      102842.25    
   1436000   1436000        0.25239485     0.27633667     307.51331      280.63955      26.873761      29.422968      297.00251     -30.605323      129311.92      129452.78      26576.063      102876.71    
   1437000   1437000        0.25243044     0.20247766     310.2952       273.61019      36.685013      29.425515      296.06789      576.28525      131967.02      129314.78      26492.433      102822.34    
   1438000   1438000        0.25172116     0.44443939     308.65752      291.99142      16.666094      29.42569       296.62103     -255.38068      128353.57      129528.91      26541.928      102986.99    
   1439000   1439000        0.25248462     0.1928         315.04104      276.50839      38.532648      29.423949      297.80322     -514.68858      127140.5       129509.25      26647.711      102861.54    
   1440000   1440000        0.2522627      0.2235301      316.76278      283.55461      33.208171      29.425777      297.19975     -530.3713       127006.81      129447.74      26593.712      102854.03    
   1441000   1441000        0.25207167     0.89565384     305.5396       297.25871      8.2808896      29.423419      297.39691      203.42381      130418.76      129482.54      26611.354      102871.19    
   1442000   1442000        0.25201957     0.27333001     319.81853      292.69204      27.126492      29.420272      298.53205     -561.60432      126987.73      129572.4       26712.927      102859.47    
   1443000   1443000        0.25180756     0.237447       323.08594      291.8904       31.195544      29.416464      299.85164      63.091404      130117.61      129827.24      26831.006      102996.24    
   1444000   1444000        0.25170326     1.8905052      301.73458      297.81833      3.9162504      29.414366      300.22806      197.32557      130680.26      129772.11      26864.688      102907.42    
   1445000   1445000        0.25188381     0.43541578     309.27672      292.26214      17.014574      29.41203       300.04088     -85.88265       129170.11      129565.36      26847.939      102717.43    
   1446000   1446000        0.25182229     0.22323276     321.526        288.34781      33.178182      29.411444      297.78406     -218.02673      128610.13      129613.55      26645.996      102967.56    
   1447000   1447000        0.25151369     0.34702391     313.59956      292.28296      21.316598      29.411399      298.77825      174.00285      130348.88      129548.07      26734.958      102813.11    
   1448000   1448000        0.25137817     0.52957532     309.96848      296.00625      13.962231      29.414061      297.51309     -381.82494      127663.12      129420.4       26621.75       102798.65    
   1449000   1449000        0.25122238     0.40426825     296.11324      277.83625      18.276987      29.411415      297.07725     -354.72305      127683.61      129316.15      26582.751      102733.4     
   1450000   1450000        0.25180343     0.98915073     302.69624      295.21014      7.486102       29.407397      296.19541     -98.283715      128931.63      129383.96      26503.842      102880.12    
   1451000   1451000        0.25191951     0.14273373     324.17613      272.27473      51.901407      29.40654       296.90398     -77.989505      129004.33      129363.26      26567.246      102796.02    
   1452000   1452000        0.25241037     0.20116465     317.2665       280.36579      36.90071       29.408928      296.71447     -45.511244      129209.18      129418.63      26550.289      102868.34    
   1453000   1453000        0.25231575     0.20277137     313.40617      276.81396      36.59221       29.407013      295.79631     -197.1592       128480.14      129387.52      26468.131      102919.39    
   1454000   1454000        0.25240146     0.32143297     312.66156      289.57041      23.091147      29.40655       298.06744     -740.93538      126073.82      129483.83      26671.354      102812.48    
   1455000   1455000        0.25252838     0.64936233     304.00512      292.56864      11.436485      29.408269      297.08588     -560.98064      126618.2       129200.01      26583.523      102616.48    
   1456000   1456000        0.25250605     0.21303009     320.61989      285.76053      34.859358      29.409561      297.8346      -267.05092      127914.12      129143.17      26650.519      102492.65    
   1457000   1457000        0.25248647     0.18394122     322.22293      281.85434      40.368597      29.409295      297.59547     -597.90808      126503.01      129254.76      26629.121      102625.64    
   1458000   1458000        0.25285708     0.20746683     319.34431      283.4983       35.846013      29.411313      298.1786       91.617122      129570.01      129148.36      26681.3        102467.06    
   1459000   1459000        0.25276708     0.21012064     320.60017      285.21937      35.380791      29.411403      296.04047     -108.10227      128779.38      129276.9       26489.979      102786.92    
   1460000   1460000        0.25249317     0.29703272     313.3215       288.32096      25.000546      29.410618      295.55897      433.9453       131106.98      129109.83      26446.894      102662.94    
   1461000   1461000        0.25218479     0.21676745     316.24536      282.02785      34.217509      29.411933      297.07505     -582.48077      126662.68      129343.43      26582.554      102760.88    
   1462000   1462000        0.25227845     0.2445523      313.80602      283.46591      30.340101      29.41092       296.35367     -260.73873      128103.32      129303.32      26518.004      102785.31    
   1463000   1463000        0.25248244     0.21731271     320.82307      286.64954      34.173534      29.413306      296.42398     -633.32856      126287.04      129201.81      26524.296      102677.51    
   1464000   1464000        0.2518136      0.29589111     301.93218      276.90258      25.029603      29.41079       295.7448      -513.64244      126819.11      129183.05      26463.522      102719.53    
   1465000   1465000        0.25213839     0.25601716     324.81854      295.85555      28.962992      29.408544      297.53171     -174.90491      128540.12      129345.08      26623.416      102721.67    
   1466000   1466000        0.25271587     0.27355334     310.09837      282.92834      27.17003       29.410313      298.32994     -540.65268      126950.37      129438.62      26694.842      102743.78    
   1467000   1467000        0.2523079      0.35111918     314.54444      293.41125      21.133193      29.40958       296.95543      21.027941      129518.7       129421.93      26571.85       102850.08    
   1468000   1468000        0.25224884     0.19367608     320.47875      282.17829      38.300468      29.407011      298.27479     -185.31742      128526.92      129379.81      26689.908      102689.9     
   1469000   1469000        0.25168414     0.48781614     303.99068      288.82071      15.169968      29.402548      298.48825     -512.29097      127070.92      129428.64      26709.009      102719.63    
   1470000   1470000        0.25181609     0.18976124     313.44867      274.43537      39.013301      29.399283      298.48981     -231.38337      128421.98      129486.88      26709.148      102777.73    
   1471000   1471000        0.25252832     0.15553222     326.00519      278.2696       47.73559       29.400356      297.4124      -498.32521      127148.55      129441.99      26612.74       102829.25    
   1472000   1472000        0.25201658     0.30594094     302.61734      278.39927      24.218064      29.400039      297.40539     -243.55632      128254.89      129375.81      26612.113      102763.7     
   1473000   1473000        0.25155181     0.25410882     310.01214      280.90841      29.103728      29.399565      297.06485     -235.50349      128318.16      129402.01      26581.641      102820.37    
   1474000   1474000        0.25204744     0.28172581     313.47596      287.17102      26.304935      29.402318      298.09196      26.412245      129655.6       129534.04      26673.548      102860.5     
   1475000   1475000        0.25156096     0.21942218     324.62721      290.91617      33.711041      29.404206      299.13405      59.317846      129838.52      129565.52      26766.795      102798.73    
   1476000   1476000        0.25226544     0.27952205     313.41532      286.87663      26.538687      29.406122      298.95306     -241.88746      128350.57      129463.81      26750.6        102713.21    
   1477000   1477000        0.25214496     0.25342035     324.96257      295.70613      29.256441      29.404424      299.43637     -368.30203      127810.08      129505.12      26793.847      102711.27    
   1478000   1478000        0.25234367     0.25506542     308.83276      279.74258      29.09018       29.403943      296.90962     -306.35015      127955.78      129365.7       26567.751      102797.95    
   1479000   1479000        0.25215329     0.22576923     320.24051      287.4004       32.840116      29.403891      299.09177     -354.82011      127643.33      129276.32      26763.012      102513.3     
   1480000   1480000        0.25167076     0.3072973      318.25392      294.17206      24.081862      29.404653      297.61713     -468.31397      127208.55      129363.87      26631.06       102732.81    
   1481000   1481000        0.25169991     0.38134157     310.4299       291.02046      19.409447      29.406562      298.17415     -150.93461      128595.64      129290.28      26680.902      102609.38    
   1482000   1482000        0.25190077     0.18624799     323.77963      284.00788      39.771744      29.406053      298.30843      20.425028      129375.88      129281.87      26692.918      102588.96    
   1483000   1483000        0.25202027     0.335829       316.94678      294.8815       22.065281      29.403037      297.53451      38.360761      129638.17      129461.62      26623.667      102837.95    
   1484000   1484000        0.25205458     0.27232511     315.23199      288.01846      27.213532      29.402076      296.62718     -246.18283      128197.09      129330.1       26542.478      102787.62    
   1485000   1485000        0.2519051      0.33778978     303.62393      281.69615      21.927783      29.403854      298.0732      -195.52061      128360.38      129260.23      26671.869      102588.36    
   1486000   1486000        0.25191562     0.23505691     322.1091       290.59625      31.51285       29.403944      298.88221     -180.34937      128568.81      129398.83      26744.26       102654.57    
   1487000   1487000        0.25200141     0.19374357     323.29517      285.0478       38.247365      29.405316      297.45947     -344.90824      127722.62      129309.99      26616.952      102693.04    
   1488000   1488000        0.25158592     0.29148759     309.94122      284.55969      25.381537      29.407063      298.09933      17.764946      129421.22      129339.46      26674.208      102665.25    
   1489000   1489000        0.25186707     0.21920986     314.1826       280.39334      33.789268      29.408134      296.53677      150.1957       129907.57      129216.32      26534.388      102681.93    
   1490000   1490000        0.25144299     0.65174958     300.67833      289.33272      11.345612      29.408247      299.04077     -157.41915      128499.03      129223.52      26758.448      102465.07    
   1491000   1491000        0.25171878     0.24681889     303.62535      273.63036      29.994983      29.411109      295.5808      -53.430492      128856.85      129102.76      26448.847      102653.91    
   1492000   1492000        0.2515636      0.28953223     310.3734       284.81847      25.554934      29.411954      297.35019      98.359289      129702.56      129249.88      26607.173      102642.71    
   1493000   1493000        0.25130215     0.3688293      305.88692      285.84646      20.040464      29.412841      299.17509     -528.07474      126908.13      129338.49      26770.467      102568.03    
   1494000   1494000        0.25158573     0.16721664     334.99691      290.74502      44.251897      29.412057      299.59276     -159.01977      128570.3       129302.16      26807.841      102494.32    
   1495000   1495000        0.25180708     0.30663545     312.43374      288.28009      24.153652      29.412859      297.28738     -410.52128      127428.18      129317.53      26601.554      102715.97    
   1496000   1496000        0.25132671     0.27677204     317.16129      290.45174      26.709549      29.413732      298.93186     -94.920207      128904.49      129341.34      26748.703      102592.64    
   1497000   1497000        0.25107872     0.34884431     308.79133      287.62134      21.169988      29.413206      296.56537     -473.50942      127030.44      129209.67      26536.947      102672.73    
   1498000   1498000        0.25070815     0.29414711     310.64522      285.57478      25.070444      29.414275      297.76121     -279.96112      128024.39      129312.85      26643.952      102668.9     
   1499000   1499000        0.2508366      0.26852807     319.21935      291.74522      27.474133      29.41188       298.17487     -1.4471068      129301.71      129308.37      26680.967      102627.4     
   1500000   1500000        0.25113601     0.26409877     320.42149      292.45213      27.969361      29.413042      298.143       -428.84636      127390.47      129364.16      26678.115      102686.04    
   1501000   1501000        0.25090207     0.31555233     309.23115      285.84556      23.385585      29.411379      296.28668     -140.67458      128598.65      129246.08      26512.009      102734.07    
   1502000   1502000        0.25054277     0.29854905     312.66879      287.98885      24.67994       29.408841      298.34164     -354.46428      127804.26      129435.61      26695.89       102739.72    
   1503000   1503000        0.25136622     0.15154375     320.11696      271.3356       48.781363      29.409324      296.14916      19.111061      129314.43      129226.47      26499.704      102726.77    
   1504000   1504000        0.25114413     0.27104512     308.65693      281.4054       27.251528      29.410976      297.36834     -287.09142      128054.13      129375.42      26608.798      102766.62    
   1505000   1505000        0.25100382     0.24690863     311.95679      282.05798      29.898803      29.410996      297.9794       197.02062      130436.42      129529.68      26663.476      102866.2     
   1506000   1506000        0.24998651     0.59322063     306.83668      294.4436       12.393075      29.408899      299.89318     -130.35725      128882.63      129482.57      26834.723      102647.85    
   1507000   1507000        0.25063159     0.29668901     318.6776       293.83605      24.841548      29.406565      298.40325      31.838307      129673.29      129526.76      26701.403      102825.36    
   1508000   1508000        0.25068918     0.21417675     318.23024      283.81104      34.419203      29.406108      296.942        352.71936      131126.22      129502.9       26570.648      102932.25    
   1509000   1509000        0.25030607     0.22453303     313.1021       280.32173      32.780365      29.405099      297.40118     -579.32564      126548.79      129215.03      26611.736      102603.29    
   1510000   1510000        0.2508889      0.30739328     313.83621      289.83589      24.000325      29.4056        297.79612     -116.9885       128756.78      129295.2       26647.076      102648.12    
   1511000   1511000        0.2510205      0.19794629     320.72586      283.43548      37.290375      29.405931      297.85173      193.51584      130285.86      129395.24      26652.052      102743.19    
   1512000   1512000        0.25123326     0.29181287     314.92048      289.60532      25.315159      29.404104      298.16238     -81.156508      129073.31      129446.82      26679.849      102766.97    
   1513000   1513000        0.25145002     0.20324766     327.00886      290.63027      36.378589      29.404902      298.81048     -444.38412      127437.28      129482.47      26737.842      102744.63    
   1514000   1514000        0.25129956     0.22877954     313.58843      281.2898       32.298634      29.404215      299.05596      269.71672      130904.93      129663.61      26759.807      102903.8     
   1515000   1515000        0.25067746     0.26006181     311.99906      283.65613      28.34293       29.403975      298.50937     -502.85709      127228.41      129542.71      26710.898      102831.81    
   1516000   1516000        0.25175575     0.19242827     317.14682      278.67394      38.472883      29.406559      298.68813      283.96198      130814.11      129507.23      26726.893      102780.34    
   1517000   1517000        0.25156998     0.1753641      322.57789      280.38792      42.189971      29.409734      297.11428     -390.50797      127591.65      129388.89      26586.064      102802.82    
   1518000   1518000        0.25124182     0.33104979     306.49819      284.17825      22.319935      29.409951      296.25846     -433.62397      127442.66      129438.33      26509.484      102928.84    
   1519000   1519000        0.25141091     0.15164649     333.8812       285.12687      48.754334      29.407728      298.16755     -411.59711      127486.67      129380.97      26680.312      102700.66    
   1520000   1520000        0.25100487     0.30681879     319.82122      295.76279      24.05843       29.408108      298.96647     -494.49432      127123.76      129399.57      26751.8        102647.77    
   1521000   1521000        0.25116195     0.31058043     309.65746      285.87504      23.782415      29.408725      295.57383     -220.89887      128245.94      129262.59      26448.223      102814.36    
Loop time of 21925.6 on 32 procs for 1500000 steps with 30020 atoms

Performance: 5.911 ns/day, 4.060 hours/ns, 68.413 timesteps/s, 2.054 Matom-step/s
99.4% CPU use with 32 MPI tasks x 1 OpenMP threads

MPI task timing breakdown:
Section |  min time  |  avg time  |  max time  |%varavg| %total
---------------------------------------------------------------
Pair    | 9688.8     | 10723      | 11911      | 481.3 | 48.91
Bond    | 241.54     | 255.56     | 266.78     |  39.1 |  1.17
Kspace  | 7436       | 8627.2     | 9613.5     | 537.8 | 39.35
Neigh   | 758.55     | 774.33     | 794.72     |  43.3 |  3.53
Comm    | 1073.4     | 1197       | 1354.2     | 221.1 |  5.46
Output  | 0.26804    | 0.28572    | 0.52138    |   8.0 |  0.00
Modify  | 271.29     | 307.49     | 344.54     | 111.2 |  1.40
Other   |            | 40.31      |            |       |  0.18

Nlocal:        938.125 ave         987 max         860 min
Histogram: 1 0 2 3 2 2 11 7 1 3
Nghost:          10723 ave       10833 max       10598 min
Histogram: 3 1 2 3 5 4 4 5 2 3
Neighs:         512692 ave      559942 max      450825 min
Histogram: 1 3 0 4 2 7 4 6 2 3

Total # of neighbors = 16406142
Ave neighs/atom = 546.50706
Ave special neighs/atom = 10.787475
Neighbor list builds = 58655
Dangerous builds = 0
Total wall time: 6:10:29
