units real
atom_style full
boundary p p p

# styles
pair_style lj/charmm/coul/long 8.0 12.0
kspace_style pppm 1e-6
dielectric 1.000000
bond_style harmonic
angle_style harmonic
dihedral_style fourier
improper_style cvff
special_bonds amber
pair_modify mix arithmetic
neighbor 2.0 bin
neigh_modify delay 0 every 1 check yes

# system definition
read_data ../final.data
Reading data file ...
  orthogonal box = (-35.667086 -39.652884 -27.891195) to (35.667086 39.652884 27.891195)
  4 by 4 by 2 MPI processor grid
  reading atoms ...
  30020 atoms
  reading velocities ...
  30020 velocities
  scanning bonds ...
  3 = max bonds/atom
  scanning angles ...
  6 = max angles/atom
  scanning dihedrals ...
  24 = max dihedrals/atom
  orthogonal box = (-35.667086 -39.652884 -27.891195) to (35.667086 39.652884 27.891195)
  4 by 4 by 2 MPI processor grid
  reading bonds ...
  30010 bonds
  reading angles ...
  56000 angles
  reading dihedrals ...
  75910 dihedrals
Finding 1-2 1-3 1-4 neighbors ...
  special bond factors lj:    0        0        0.5     
  special bond factors coul:  0        0        0.8333333333333334
     4 = max # of 1-2 neighbors
    11 = max # of 1-3 neighbors
    22 = max # of 1-4 neighbors
    26 = max # of special neighbors
  special bonds CPU = 0.085 seconds
  read_data CPU = 0.637 seconds
# do not reset velocities

# vars
variable dt equal 1.0
variable tLog equal 1000
variable nEvery equal 10
variable nRepeat equal 100
variable boolDump equal 0
variable tDump equal 1000

variable tPreeq equal 10000
variable tPrerun equal 10000
variable tDelay equal 1000
variable tTCrun equal 1500000

# desiered temperature difference
variable Tavg equal 300.0
variable TempDiff equal 30.0
variable Thi equal ${Tavg}+(${TempDiff}/2)
variable Thi equal 300+(${TempDiff}/2)
variable Thi equal 300+(30/2)
variable Tlo equal ${Tavg}-(${TempDiff}/2)
variable Tlo equal 300-(${TempDiff}/2)
variable Tlo equal 300-(30/2)

# defining regions
variable hot_lo equal (ly*0)+ylo
variable hot_hi equal (ly*0.05)+ylo
variable cold_lo equal (ly*0.50)+ylo
variable cold_hi equal (ly*0.55)+ylo

# define heating and cooling block regions
region hot block INF INF ${hot_lo} ${hot_hi} INF INF units box
region hot block INF INF -39.6528842348276 ${hot_hi} INF INF units box
region hot block INF INF -39.6528842348276 -35.6875958113448 INF INF units box
region cold block INF INF ${cold_lo} ${cold_hi} INF INF units box
region cold block INF INF 0 ${cold_hi} INF INF units box
region cold block INF INF 0 3.96528842348276 INF INF units box
compute Thot all temp/region hot
compute Tcold all temp/region cold

# STEP 1 - 1st equilibration (nve)
# 1a - thermo output for md1
thermo_style custom step time temp c_Thot c_Tcold press enthalpy etotal ke pe
thermo_modify colname c_Thot Temp_hot colname c_Tcold Temp_cold
thermo_modify flush yes
thermo ${tLog}
thermo 1000

# 1b - nve equilibration
timestep ${dt}
timestep 1
fix md1 all nve
run ${tPreeq}
run 10000

CITE-CITE-CITE-CITE-CITE-CITE-CITE-CITE-CITE-CITE-CITE-CITE-CITE

Your simulation uses code contributions which should be cited:

- Type Label Framework: https://doi.org/10.1021/acs.jpcb.3c08419

@Article{Gissinger24,
 author = {Jacob R. Gissinger, Ilia Nikiforov, Yaser Afshar, Brendon Waters, Moon-ki Choi, Daniel S. Karls, Alexander Stukowski, Wonpil Im, Hendrik Heinz, Axel Kohlmeyer, and Ellad B. Tadmor},
 title = {Type Label Framework for Bonded Force Fields in LAMMPS},
 journal = {J. Phys. Chem. B},
 year =    2024,
 volume =  128,
 number =  13,
 pages =   {3282–-3297}
}

CITE-CITE-CITE-CITE-CITE-CITE-CITE-CITE-CITE-CITE-CITE-CITE-CITE

PPPM initialization ...
  using 12-bit tables for long-range coulomb (src/kspace.cpp:342)
  G vector (1/distance) = 0.25787445
  grid = 54 60 45
  stencil order = 5
  estimated absolute RMS force accuracy = 0.00038404524
  estimated relative force accuracy = 1.1565408e-06
  using double precision FFTW3
  3d grid and FFT values/proc = 12760 6480
Generated 21 of 21 mixed pair_coeff terms from arithmetic mixing rule
Neighbor list info ...
  update: every = 1 steps, delay = 0 steps, check = yes
  max neighbors/atom: 2000, page size: 100000
  master list distance cutoff = 14
  ghost atom cutoff = 14
  binsize = 7, bins = 11 12 8
  1 neighbor lists, perpetual/occasional/extra = 1 0 0
  (1) pair lj/charmm/coul/long, perpetual
      attributes: half, newton on
      pair build: half/bin/newton
      stencil: half/bin/3d
      bin: standard
Per MPI rank memory allocation (min/avg/max) = 20.61 | 20.98 | 21.22 Mbytes
   Step          Time           Temp         Temp_hot      Temp_cold        Press         Enthalpy        TotEng         KinEng         PotEng    
         0   0              297.69673      305.34862      299.37518      213.30029      130639.82      129658.15      26638.183      103019.96    
      1000   1000           299.11432      297.952        306.50598      126.92638      130241.92      129657.77      26765.029      102892.74    
      2000   2000           297.98715      317.69121      299.10428     -255.02617      128480.62      129654.33      26664.17       102990.16    
      3000   3000           298.11551      302.72856      292.32421     -298.19502      128287.58      129659.96      26675.655      102984.3     
      4000   4000           299.95835      303.32035      304.88801      311.10856      131087.29      129655.47      26840.554      102814.92    
      5000   5000           298.69842      306.07348      308.30069      392.25071      131463.1       129657.84      26727.814      102930.03    
      6000   6000           296.34515      297.0234       303.37788     -179.41996      128831.71      129657.46      26517.242      103140.22    
      7000   7000           296.98053      310.10691      295.32531      223.508        130686.36      129657.71      26574.096      103083.61    
      8000   8000           299.75918      304.74811      300.7704      -23.87276       129539.12      129648.99      26822.733      102826.26    
      9000   9000           299.56213      305.47224      300.00281      145.93954      130328.32      129656.66      26805.1        102851.56    
     10000   10000          299.2864       316.52774      308.91947     -387.29479      127875.8       129658.25      26780.428      102877.82    
Loop time of 143.417 on 32 procs for 10000 steps with 30020 atoms

Performance: 6.024 ns/day, 3.984 hours/ns, 69.727 timesteps/s, 2.093 Matom-step/s
99.5% CPU use with 32 MPI tasks x 1 OpenMP threads

MPI task timing breakdown:
Section |  min time  |  avg time  |  max time  |%varavg| %total
---------------------------------------------------------------
Pair    | 64.591     | 72.109     | 79.231     |  46.2 | 50.28
Bond    | 1.4964     | 1.6958     | 1.8404     |   5.8 |  1.18
Kspace  | 48.939     | 55.673     | 63.635     |  52.8 | 38.82
Neigh   | 5.002      | 5.1262     | 5.2414     |   3.6 |  3.57
Comm    | 7.0917     | 7.9086     | 8.8991     |  21.4 |  5.51
Output  | 0.0011374  | 0.0014709  | 0.0032117  |   0.9 |  0.00
Modify  | 0.049777   | 0.0542     | 0.064008   |   1.3 |  0.04
Other   |            | 0.8485     |            |       |  0.59

Nlocal:        938.125 ave        1003 max         881 min
Histogram: 3 1 2 6 5 7 3 2 2 1
Nghost:        10710.8 ave       10865 max       10590 min
Histogram: 4 5 4 3 2 3 5 2 2 2
Neighs:         512796 ave      569864 max      476485 min
Histogram: 4 7 4 3 3 2 4 1 2 2

Total # of neighbors = 16409467
Ave neighs/atom = 546.61782
Ave special neighs/atom = 10.787475
Neighbor list builds = 390
Dangerous builds = 0
unfix md1

# STEP 2 - pre run
# 2a - impose nve
fix md2 all nve

# 2b - impose thermostating
fix hot all langevin ${Thi} ${Thi} 100.0 57485 tally yes
fix hot all langevin 315 ${Thi} 100.0 57485 tally yes
fix hot all langevin 315 315 100.0 57485 tally yes
fix cold all langevin ${Tlo} ${Tlo} 100.0 12490 tally yes
fix cold all langevin 285 ${Tlo} 100.0 12490 tally yes
fix cold all langevin 285 285 100.0 12490 tally yes
fix_modify hot temp Thot
fix_modify cold temp Tcold
# calculate tdiff of regions
variable tdiff equal c_Thot-c_Tcold

# 2c - thermo output
thermo_style custom step time temp c_Thot c_Tcold f_hot f_cold v_tdiff press enthalpy etotal ke pe
WARNING: New thermo_style command, previous thermo_modify settings will be lost (src/output.cpp:904)
thermo_modify colname c_Thot Temp_hot colname c_Tcold Temp_cold               colname f_hot E_hot colname f_cold E_cold               colname v_tdiff dTemp_step
thermo_modify flush yes
thermo ${tLog}
thermo 1000

# 2d - pre run
run ${tPrerun}
run 10000
PPPM initialization ...
  using 12-bit tables for long-range coulomb (src/kspace.cpp:342)
  G vector (1/distance) = 0.25787445
  grid = 54 60 45
  stencil order = 5
  estimated absolute RMS force accuracy = 0.00038404524
  estimated relative force accuracy = 1.1565408e-06
  using double precision FFTW3
  3d grid and FFT values/proc = 12760 6480
Generated 21 of 21 mixed pair_coeff terms from arithmetic mixing rule
Per MPI rank memory allocation (min/avg/max) = 21.59 | 21.84 | 21.97 Mbytes
   Step          Time           Temp         Temp_hot      Temp_cold        E_hot          E_cold       dTemp_step       Press         Enthalpy        TotEng         KinEng         PotEng    
     10000   10000          299.2864       316.84807      308.91947     -0             -0              7.928601      -387.29479      127875.8       129658.25      26780.428      102877.82    
     11000   11000          300.33229      324.26047      287.3316      -261.27341      266.31901      36.928871     -88.688841      129252.44      129660.61      26874.014      102786.59    
     12000   12000          298.9442       306.47512      279.93912     -392.40745      310.50038      26.536002      568.99218      132364.57      129745.89      26749.807      102996.08    
     13000   13000          299.0302       309.04305      289.96593     -373.09716      445.88131      19.077124      76.614695      129950.91      129598.31      26757.503      102840.81    
     14000   14000          300.43387      322.48231      285.43795     -494.80114      529.03739      37.044363      260.92563      130840.21      129639.35      26883.104      102756.25    
     15000   15000          299.19417      322.45346      297.46252     -532.66749      504.89854      24.99094       499.0501       132006.03      129709.25      26772.175      102937.08    
     16000   16000          298.42202      309.39378      288.11522     -494.53648      694.07273      21.278567      297.94716      130853.15      129481.91      26703.082      102778.83    
     17000   17000          300.25788      316.7228       282.97683     -671.6483       732.99549      33.745976      405.34683      131489.82      129624.29      26867.356      102756.93    
     18000   18000          297.72962      311.68055      274.78093     -754.5474       812.1761       36.899619      222.46901      130665.04      129641.17      26641.126      103000.04    
     19000   19000          296.85033      303.81176      287.49055     -759.25405      873.87539      16.321213     -431.76723      127603.69      129590.82      26562.446      103028.37    
     20000   20000          297.43331      306.09366      284.92342     -790.29913      873.34692      21.170247      238.946        130725.97      129626.27      26614.611      103011.66    
Loop time of 144.667 on 32 procs for 10000 steps with 30020 atoms

Performance: 5.972 ns/day, 4.019 hours/ns, 69.124 timesteps/s, 2.075 Matom-step/s
99.4% CPU use with 32 MPI tasks x 1 OpenMP threads

MPI task timing breakdown:
Section |  min time  |  avg time  |  max time  |%varavg| %total
---------------------------------------------------------------
Pair    | 65.267     | 71.348     | 78.322     |  44.0 | 49.32
Bond    | 1.5076     | 1.6984     | 1.8647     |   6.1 |  1.17
Kspace  | 49.641     | 56.253     | 62.803     |  49.8 | 38.88
Neigh   | 4.9584     | 5.0943     | 5.2135     |   3.8 |  3.52
Comm    | 7.2185     | 7.939      | 8.8925     |  20.5 |  5.49
Output  | 0.0012751  | 0.0014168  | 0.0032114  |   0.9 |  0.00
Modify  | 1.7102     | 2.0569     | 2.5715     |  12.2 |  1.42
Other   |            | 0.2765     |            |       |  0.19

Nlocal:        938.125 ave         995 max         865 min
Histogram: 2 0 2 3 7 4 4 4 3 3
Nghost:        10724.5 ave       10912 max       10574 min
Histogram: 2 5 4 3 4 4 5 1 2 2
Neighs:         512870 ave      559048 max      475859 min
Histogram: 6 3 4 3 3 1 4 2 3 3

Total # of neighbors = 16411828
Ave neighs/atom = 546.69647
Ave special neighs/atom = 10.787475
Neighbor list builds = 388
Dangerous builds = 0
unfix md2

# STEP 3 - md for tc caluclation
# 3a - impose nve
fix md3 all nve

# 3b - calculate and output thermal profile
compute ke all ke/atom
variable temp atom c_ke/(1.5*0.001987204)
compute layers all chunk/atom bin/1d y lower 0.05 units reduced
fix bins all ave/chunk ${nEvery} ${nRepeat} ${tLog} layers v_temp file Tprofile_y_lav.dat
fix bins all ave/chunk 10 ${nRepeat} ${tLog} layers v_temp file Tprofile_y_lav.dat
fix bins all ave/chunk 10 100 ${tLog} layers v_temp file Tprofile_y_lav.dat
fix bins all ave/chunk 10 100 1000 layers v_temp file Tprofile_y_lav.dat

# 3c - reset thermostats to zero energy accumulation
fix hot all langevin ${Thi} ${Thi} 100.0 57485 tally yes
fix hot all langevin 315 ${Thi} 100.0 57485 tally yes
fix hot all langevin 315 315 100.0 57485 tally yes
fix cold all langevin ${Tlo} ${Tlo} 100.0 12490 tally yes
fix cold all langevin 285 ${Tlo} 100.0 12490 tally yes
fix cold all langevin 285 285 100.0 12490 tally yes
fix_modify hot temp Thot
fix_modify cold temp Tcold

# 3c - compute average tdiff
fix ave all ave/time ${nEvery} ${nRepeat} ${tLog} v_tdiff ave running
fix ave all ave/time 10 ${nRepeat} ${tLog} v_tdiff ave running
fix ave all ave/time 10 100 ${tLog} v_tdiff ave running
fix ave all ave/time 10 100 1000 v_tdiff ave running

# 3d - time delay run
variable aTime equal time
variable start_time equal ${aTime}
variable start_time equal 20000
run ${tDelay}
run 1000
PPPM initialization ...
  using 12-bit tables for long-range coulomb (src/kspace.cpp:342)
  G vector (1/distance) = 0.25787445
  grid = 54 60 45
  stencil order = 5
  estimated absolute RMS force accuracy = 0.00038404524
  estimated relative force accuracy = 1.1565408e-06
  using double precision FFTW3
  3d grid and FFT values/proc = 12760 6480
Generated 21 of 21 mixed pair_coeff terms from arithmetic mixing rule
Per MPI rank memory allocation (min/avg/max) = 21.84 | 22.09 | 22.22 Mbytes
   Step          Time           Temp         Temp_hot      Temp_cold        E_hot          E_cold       dTemp_step       Press         Enthalpy        TotEng         KinEng         PotEng    
     20000   20000          297.43331      305.65003      284.92342     -0             -0              20.726612      238.946        130725.97      129626.27      26614.611      103011.66    
     21000   21000          297.05857      320.20673      291.95717     -90.967484      22.019912      28.249561     -132.92279      129081.97      129693.73      26581.079      103112.65    
Loop time of 14.4803 on 32 procs for 1000 steps with 30020 atoms

Performance: 5.967 ns/day, 4.022 hours/ns, 69.059 timesteps/s, 2.073 Matom-step/s
99.4% CPU use with 32 MPI tasks x 1 OpenMP threads

MPI task timing breakdown:
Section |  min time  |  avg time  |  max time  |%varavg| %total
---------------------------------------------------------------
Pair    | 6.5106     | 7.1382     | 7.8917     |  14.0 | 49.30
Bond    | 0.15187    | 0.16965    | 0.18868    |   2.0 |  1.17
Kspace  | 4.8825     | 5.6255     | 6.2425     |  15.9 | 38.85
Neigh   | 0.49806    | 0.51331    | 0.52557    |   1.3 |  3.54
Comm    | 0.71079    | 0.79556    | 0.89869    |   7.0 |  5.49
Output  | 0.00011032 | 0.00011826 | 0.00027738 |   0.0 |  0.00
Modify  | 0.1752     | 0.21048    | 0.26117    |   4.3 |  1.45
Other   |            | 0.02741    |            |       |  0.19

Nlocal:        938.125 ave         990 max         864 min
Histogram: 1 2 0 3 2 10 4 2 5 3
Nghost:        10718.9 ave       10916 max       10589 min
Histogram: 4 5 7 3 0 5 3 3 0 2
Neighs:         512850 ave      562479 max      456394 min
Histogram: 1 1 5 3 5 4 4 3 3 3

Total # of neighbors = 16411184
Ave neighs/atom = 546.67502
Ave special neighs/atom = 10.787475
Neighbor list builds = 39
Dangerous builds = 0

# 3f - calculate kappa
variable kappa_inst equal (0.5*(abs(f_hot)+abs(f_cold))/(time-${start_time})/(lx*lz)/2.0)*(ly/2.0)/v_tdiff*69478.5785
variable kappa_inst equal (0.5*(abs(f_hot)+abs(f_cold))/(time-20000)/(lx*lz)/2.0)*(ly/2.0)/v_tdiff*69478.5785
variable kappa equal (0.5*(abs(f_hot)+abs(f_cold))/(time-${start_time})/(lx*lz)/2.0)*(ly/2.0)/f_ave*69478.5785
variable kappa equal (0.5*(abs(f_hot)+abs(f_cold))/(time-20000)/(lx*lz)/2.0)*(ly/2.0)/f_ave*69478.5785

# 3e - thermo out
# dump dump_tc all custom 1000 dump.tc_x_ehex.lammpstrj id type mol x y z ix iy iz vx vy vz
thermo_style custom step time v_kappa v_kappa_inst c_Thot c_Tcold v_tdiff f_ave temp press enthalpy etotal ke pe
WARNING: New thermo_style command, previous thermo_modify settings will be lost (src/output.cpp:904)
thermo_modify colname v_kappa kappa colname v_kappa_inst kappa_inst               colname c_Thot Temp_hot colname c_Tcold Temp_cold               colname v_tdiff dTemp_step colname f_ave dTemp
thermo_modify flush yes
thermo ${tLog}
thermo 1000

# 2g - md run for kappa calculation
# optional traj dump
if "${boolDump} == 1" then     "dump tc_dump all atom ${tDump} dump.tc_y.lammpstrj"
run ${tTCrun}
run 1500000
PPPM initialization ...
  using 12-bit tables for long-range coulomb (src/kspace.cpp:342)
  G vector (1/distance) = 0.25787445
  grid = 54 60 45
  stencil order = 5
  estimated absolute RMS force accuracy = 0.00038404524
  estimated relative force accuracy = 1.1565408e-06
  using double precision FFTW3
  3d grid and FFT values/proc = 12760 6480
Generated 21 of 21 mixed pair_coeff terms from arithmetic mixing rule
Per MPI rank memory allocation (min/avg/max) = 22.09 | 22.34 | 22.47 Mbytes
   Step          Time          kappa        kappa_inst      Temp_hot      Temp_cold      dTemp_step       dTemp           Temp          Press         Enthalpy        TotEng         KinEng         PotEng    
     21000   21000          0              0              320.19764      291.95717      28.240475      25.696606      297.05857     -132.92279      129081.97      129693.73      26581.079      103112.65    
     22000   22000          0.96117057     0.91009548     318.45914      288.25736      30.201786      28.596911      297.99325      149.53884      130075.03      129386.81      26664.716      102722.09    
     23000   23000          0.1471653      0.12405883     318.24241      285.13236      33.110046      27.911428      299.45439      507.1947       132119.57      129785.3       26795.46       102989.84    
     24000   24000          0.13576421     0.15646462     315.11101      289.63842      25.472595      29.356485      298.00214      28.42666       129749.01      129618.19      26665.511      102952.67    
     25000   25000          0.13714083     0.4929489      301.14201      293.16939      7.9726251      28.657378      296.86486     -407.94707      127725.18      129602.68      26563.746      103038.94    
     26000   26000          0.14586898     0.1720493      312.41797      288.1478       24.270166      28.626134      299.88345      18.470639      129761.44      129676.44      26833.852      102842.58    
     27000   27000          0.23851163     0.19619012     319.09321      283.83329      35.259919      29.003397      298.61493      593.58565      132425.7       129693.84      26720.343      102973.49    
     28000   28000          0.2848883      0.25079954     314.55214      281.30617      33.245969      29.26787       297.71552     -331.89418      127991.32      129518.8       26639.864      102878.93    
     29000   29000          0.32513354     0.26331608     316.85608      281.16636      35.689726      28.904058      297.32579      335.7851       131075.23      129529.84      26604.99       102924.85    
     30000   30000          0.34086237     0.24669764     320.85446      280.86181      39.992651      28.944505      298.91704      116.76347      130110.24      129572.86      26747.377      102825.48    
     31000   31000          0.14373023     0.17806186     316.90124      293.60272      23.29852       28.86364       298.41346     -647.55212      126656.77      129637.01      26702.316      102934.69    
     32000   32000          0.24486163     0.2944527      306.61405      282.7076       23.906446      28.748145      299.14317     -100.12873      129154.36      129615.18      26767.611      102847.57    
     33000   33000          0.1998652      0.1682673      311.61323      277.47624      34.136993      28.740068      300.56511      38.760756      129786.59      129608.2       26894.848      102713.36    
     34000   34000          0.23491474     0.19211832     318.0028       282.74143      35.261367      28.837503      296.69633     -341.18021      128155.24      129725.46      26548.665      103176.79    
     35000   35000          0.20753923     0.11600453     323.29618      271.51563      51.780542      28.942853      298.22573      265.3997       130855.39      129633.94      26685.518      102948.43    
     36000   36000          0.14873426     0.2031574      301.56414      280.42728      21.136851      28.871005      297.96321      234.59708      130677.8       129598.12      26662.027      102936.09    
     37000   37000          0.22935478     0.14620165     331.52618      286.51056      45.01562       28.695098      297.50752     -456.70437      127554.04      129655.93      26621.251      103034.68    
     38000   38000          0.15281637     0.12624936     320.98964      286.28524      34.704399      28.671065      297.98764     -267.36859      128528.53      129759.04      26664.214      103094.82    
     39000   39000          0.21605505     0.150488       325.47116      284.34675      41.124406      28.644225      297.41248     -78.859572      129259.19      129622.12      26612.748      103009.38    
     40000   40000          0.22904464     0.16214218     327.45842      286.95177      40.506654      28.674923      298.08508      29.404851      129843.91      129708.58      26672.933      103035.65    
     41000   41000          0.24796712     0.45563059     310.92516      295.23116      15.694003      28.837161      300.50747     -206.91827      128810.31      129762.61      26889.69       102872.92    
     42000   42000          0.18735591     0.2023818      311.16834      284.35704      26.811299      28.961558      296.1795      -84.99241       129135.3       129526.46      26502.419      103024.04    
     43000   43000          0.24175994     0.25182818     313.26505      285.4705       27.794544      28.952066      298.32377     -0.94939668     129579.22      129583.59      26694.29       102889.3     
     44000   44000          0.23046662     0.29023308     316.41927      293.40971      23.009554      28.976577      299.04557     -431.00446      127644.65      129628.26      26758.877      102869.38    
     45000   45000          0.22689706     0.18548252     313.89143      278.34459      35.546835      29.058625      299.18074     -358.56794      127898.78      129549.01      26770.973      102778.04    
     46000   46000          0.25774106     0.2044711      325.0707       288.31035      36.760347      29.162714      298.84836      78.081015      130105.34      129745.99      26741.231      103004.76    
     47000   47000          0.24036772     0.20246801     322.81059      288.03083      34.779757      29.295898      301.11398      431.94877      131702.86      129714.9       26943.961      102770.94    
     48000   48000          0.24173993     0.15999212     318.35098      274.10522      44.245759      29.283422      298.92209      215.46721      130738.61      129746.96      26747.829      102999.14    
     49000   49000          0.19649525     0.16638294     319.48949      284.80412      34.685366      29.369936      301.22157      219.00622      130838.31      129830.38      26953.589      102876.79    
     50000   50000          0.19367412     0.27479364     308.68709      288.14907      20.53802       29.140276      299.60531      861.94434      133693.87      129726.94      26808.964      102917.98    
     51000   51000          0.20359512     0.26106515     308.71147      286.01925      22.692223      29.097695      298.97279      101.78736      130147.96      129679.51      26752.366      102927.14    
     52000   52000          0.23575056     0.21304003     310.86861      278.67953      32.189079      29.088211      298.32507      280.07717      131069.49      129780.49      26694.406      103086.09    
     53000   53000          0.23351417     0.27578764     306.56327      281.97688      24.586391      29.037307      298.90381      593.75845      132459.1       129726.44      26746.193      102980.25    
     54000   54000          0.22116599     0.27051153     315.99718      292.15048      23.846691      29.167256      300.17467     -229.06665      128657.17      129711.41      26859.91       102851.49    
     55000   55000          0.23873527     0.25712461     314.99956      287.83684      27.162721      29.255015      299.65815      46.213064      130044.93      129832.25      26813.692      103018.56    
     56000   56000          0.2218383      0.16846664     328.23789      289.63664      38.601252      29.314249      298.14766      118.11522      130397.43      129853.83      26678.532      103175.3     
     57000   57000          0.25041418     0.21851808     316.67147      282.99215      33.679317      29.389469      299.59019      130.91259      130405.53      129803.03      26807.611      102995.42    
     58000   58000          0.23820698     0.29752487     311.30513      287.73178      23.573353      29.443548      297.04627      157.49798      130400.62      129675.77      26579.979      103095.79    
     59000   59000          0.22365515     0.34843885     310.85022      292.03338      18.816839      29.315301      300.82135     -169.86904      128860.99      129642.78      26917.777      102725       
     60000   60000          0.23687523     0.26677807     322.66553      296.61704      26.04849       29.336819      298.89637      352.2114       131320.1       129699.12      26745.527      102953.59    
     61000   61000          0.2165947      0.27264567     317.71017      294.42161      23.288562      29.315239      299.986       -404.52669      127827.25      129689.01      26843.029      102845.98    
     62000   62000          0.23829704     0.34158931     303.23982      282.79969      20.440127      29.300109      296.8766       467.32936      131676.19      129525.4       26564.796      102960.6     
     63000   63000          0.22903206     0.17620468     316.40843      278.37453      38.033898      29.261191      296.53032      177.54738      130420.96      129603.83      26533.811      103070.02    
     64000   64000          0.23954431     0.17519228     319.72498      279.82369      39.90129       29.182067      300.54025      129.68543      130379.22      129782.37      26892.624      102889.74    
     65000   65000          0.22317404     0.43549089     305.15545      290.20023      14.955226      29.182895      299.06635     -835.33316      125854.04      129698.49      26760.737      102937.76    
     66000   66000          0.24097988     0.30746609     306.28504      283.39197      22.893069      29.209254      300.99887     -434.76689      127852.18      129853.11      26933.661      102919.45    
     67000   67000          0.24537413     0.18315076     315.35999      276.3231       39.036891      29.137694      298.23821     -180.67107      128795.05      129626.56      26686.635      102939.92    
     68000   68000          0.23732408     0.23348505     314.25793      284.68121      29.576717      29.098275      301.39801      597.8002       132417.91      129666.65      26969.377      102697.28    
     69000   69000          0.25523577     0.50422248     300.70627      285.99486      14.711414      29.062642      298.33577      221.23198      130779.72      129761.54      26695.365      103066.18    
     70000   70000          0.25506857     0.20056457     316.65599      279.74656      36.909425      29.022482      297.3033      -281.10644      128412.92      129706.66      26602.978      103103.68    
     71000   71000          0.26049798     0.31903318     314.2376       290.54925      23.688346      29.011236      299.58934      18.406775      129869.7       129784.99      26807.535      102977.46    
     72000   72000          0.27443885     0.17471063     323.22615      277.65236      45.573796      29.012753      298.51452      176.98999      130560.27      129745.71      26711.359      103034.35    
     73000   73000          0.27473953     0.31309551     310.2063       284.77296      25.433339      28.98405       298.8165       905.88472      133847.6       129678.44      26738.38       102940.06    
     74000   74000          0.27259901     0.2303912      321.87568      287.56667      34.309014      28.996785      297.43621      156.28177      130376.69      129657.43      26614.871      103042.56    
     75000   75000          0.24838844     0.27047919     311.23115      284.60973      26.621418      28.989028      297.15672      226.40926      130577.93      129535.93      26589.861      102946.06    
     76000   76000          0.24466021     0.36885644     313.07752      293.84825      19.229268      28.990572      298.42033      272.23173      130836.47      129583.58      26702.931      102880.65    
     77000   77000          0.24798412     0.20790653     321.80123      287.14973      34.651505      29.051353      298.46779      13.632269      129653.24      129590.5       26707.177      102883.32    
     78000   78000          0.23441745     0.4411381      305.90215      290.4908       15.411351      29.001827      297.26592     -218.03885      128537.49      129540.97      26599.633      102941.34    
     79000   79000          0.2623562      0.37779667     304.22427      284.11758      20.106695      28.953927      296.62781      459.67654      131732.77      129617.2       26542.535      103074.66    
     80000   80000          0.25525319     0.3032257      307.57888      283.22806      24.350815      28.927329      297.7961      -396.27674      127824.31      129648.09      26647.074      103001.02    
     81000   81000          0.25157934     0.31755549     318.22351      295.36484      22.858668      28.853306      299.15516      73.567432      130063.42      129724.84      26768.684      102956.15    
     82000   82000          0.26215238     0.21923216     316.87949      282.40726      34.472226      28.82835       299.67244      433.45581      131818.46      129823.57      26814.97       103008.6     
     83000   83000          0.26675434     0.41568126     316.25594      297.70736      18.548577      28.904106      299.48951     -2.6814023      129809.04      129821.38      26798.602      103022.78    
     84000   84000          0.28483418     0.25122054     316.16736      283.36514      32.802217      28.931187      298.7931       555.69274      132324.8       129767.33      26736.286      103031.04    
     85000   85000          0.26946607     0.17183168     326.93558      281.6178       45.317775      28.897996      300.24312     -462.07563      127646.91      129773.52      26866.036      102907.49    
     86000   86000          0.27420553     0.23015941     320.94023      286.54802      34.392206      28.867725      299.47132     -119.74055      129144.47      129695.56      26796.974      102898.58    
     87000   87000          0.26720882     0.21366654     319.68866      283.5882       36.10046       28.866788      296.97595     -156.42926      128864.28      129584.21      26573.686      103010.53    
     88000   88000          0.27404381     0.20410257     319.05843      280.2737       38.784739      28.886129      296.27921      304.7556       131038.49      129635.92      26511.341      103124.57    
     89000   89000          0.27117445     0.61414791     302.77734      290.03226      12.745073      28.864667      296.41522     -678.02116      126412.74      129533.2       26523.512      103009.68    
     90000   90000          0.26974798     0.86836878     299.38407      290.43681      8.9472645      28.802904      297.23743     -279.33239      128292.94      129578.51      26597.084      102981.43    
     91000   91000          0.27865618     0.24130298     311.95674      278.64497      33.311768      28.846404      298.10812      317.931        131039.51      129576.29      26674.994      102901.3     
     92000   92000          0.28589675     0.23131959     313.43174      277.78335      35.648386      28.843175      295.51139     -4.1565933      129531.7       129550.83      26442.636      103108.19    
     93000   93000          0.26672036     0.23304509     318.29414      285.15609      33.138053      28.954147      299.19434      527.12678      132035.42      129609.42      26772.19       102837.23    
     94000   94000          0.26728521     0.36054614     309.58241      288.09562      21.48679       28.983942      298.39198     -23.316773      129504.03      129611.35      26700.394      102910.95    
     95000   95000          0.27163308     0.44402352     305.85333      288.15927      17.694065      28.923506      297.52313     -61.821002      129221.45      129505.97      26622.649      102883.32    
     96000   96000          0.27670231     0.29874966     316.34032      289.54809      26.792226      28.927002      299.78053     -166.06187      128912.92      129677.19      26824.642      102852.55    
     97000   97000          0.28113595     0.3262226      314.85051      289.85946      24.991054      28.998948      296.64266     -444.7446       127658.32      129705.17      26543.863      103161.31    
     98000   98000          0.28853598     0.21177014     318.49148      278.90908      39.582399      29.051386      298.77947      94.279671      129956.94      129523.04      26735.067      102787.97    
     99000   99000          0.29248484     0.22389656     315.24658      277.26811      37.978465      29.072439      298.78534      360.65421      131210.71      129550.87      26735.592      102815.28    
    100000   100000         0.27534713     0.23889208     317.11413      283.56945      33.544684      29.103479      298.13587      564.65784      132138.08      129539.35      26677.477      102861.88    
    101000   101000         0.28775251     0.24742786     318.60541      284.78404      33.821369      29.081758      298.0955       203.41638      130667.18      129730.99      26673.864      103057.13    
    102000   102000         0.27782855     0.30317198     313.71329      287.06116      26.652135      29.083334      298.71755      316.54529      131055.05      129598.21      26729.526      102868.68    
    103000   103000         0.28043186     0.37114257     305.59817      283.5919       22.00627       29.124592      297.14845      335.35812      131128         129584.58      26589.122      102995.46    
    104000   104000         0.27018445     0.25120528     314.9323       283.61789      31.314413      29.114725      298.3998       493.59692      131837.83      129566.15      26701.094      102865.05    
    105000   105000         0.26958023     0.27593448     314.51168      286.05292      28.45876       29.129559      298.72295     -288.98105      128370.77      129700.75      26730.01       102970.74    
    106000   106000         0.26455755     0.2933471      324.9298       298.71405      26.215745      29.068581      300.39787     -266.2231       128372.03      129597.27      26879.883      102717.38    
    107000   107000         0.27280969     0.25886729     318.95297      288.29988      30.653092      29.086515      299.21145      96.698143      130003.05      129558.02      26773.721      102784.3     
    108000   108000         0.27161592     0.28980396     311.73681      284.43801      27.298803      29.126796      298.40122      517.34527      131886.29      129505.31      26701.221      102804.09    
    109000   109000         0.26538524     0.22452842     315.18234      280.70713      34.475213      29.167654      297.26871      715.51759      132786.09      129493.06      26599.882      102893.18    
    110000   110000         0.27596953     0.20707419     315.04194      276.08748      38.95446       29.229543      295.99899     -145.1808       128785.78      129453.95      26486.267      102967.68    
    111000   111000         0.26950478     0.28739554     318.67386      291.26002      27.413845      29.233681      298.15918     -174.9378       128699.04      129504.16      26679.563      102824.59    
    112000   112000         0.26474218     0.17740952     317.46173      273.86336      43.598373      29.216223      296.36509      424.47662      131412.29      129458.72      26519.026      102939.7     
    113000   113000         0.27693259     0.39186731     308.56583      287.89987      20.665957      29.242904      296.40461      502.37414      131718.62      129406.54      26522.562      102883.97    
    114000   114000         0.28434942     0.20481663     329.92353      289.28527      40.638263      29.271704      298.25318      271.15316      130784.54      129536.61      26687.974      102848.63    
    115000   115000         0.28386788     0.38766479     312.17258      290.71303      21.459551      29.306282      298.54061      46.226635      129680.22      129467.47      26713.694      102753.78    
    116000   116000         0.28693466     0.20667974     321.71562      280.99691      40.718714      29.329789      297.9168      -67.414334      129080.67      129390.93      26657.874      102733.06    
    117000   117000         0.27792858     0.26494039     316.2662       285.47134      30.79486       29.355751      297.32338      517.55571      131770.46      129388.51      26604.775      102783.74    
    118000   118000         0.28235245     0.20973035     317.26824      277.70178      39.566458      29.389818      296.51827      596.69708      132082.98      129336.8       26532.733      102804.06    
    119000   119000         0.27929769     0.40622182     305.57703      285.37105      20.20598       29.388393      296.49582      137.06047      130004.63      129373.83      26530.724      102843.11    
    120000   120000         0.27558826     0.30530687     324.93789      298.4442       26.493695      29.350695      298.26682      306.47323      131047.94      129637.45      26689.194      102948.26    
    121000   121000         0.28930204     0.22283037     323.82753      285.72105      38.106481      29.35092       298.48307      687.34049      132871.22      129707.87      26708.545      102999.32    
    122000   122000         0.28888112     0.29986067     312.66825      284.37033      28.297926      29.37345       298.06318     -661.65768      126669.75      129714.9       26670.972      103043.93    
    123000   123000         0.28047879     0.27705204     315.63759      285.88741      29.750176      29.386704      298.8111       540.35421      132241.03      129754.15      26737.897      103016.26    
    124000   124000         0.28135636     0.93623377     297.11413      288.28359      8.8305406      29.384267      297.3228       324.25881      131000.08      129507.75      26604.723      102903.02    
    125000   125000         0.28367651     0.60675604     294.34503      280.61681      13.728221      29.363309      297.548       -90.942634      128990.25      129408.8       26624.874      102783.93    
    126000   126000         0.29164779     0.34953404     322.26618      297.79726      24.468924      29.325516      298.55137     -15.317697      129382.23      129452.72      26714.657      102738.07    
    127000   127000         0.28700816     0.43290642     306.31997      286.86909      19.450885      29.338583      298.38405     -533.7353       126970.83      129427.25      26699.684      102727.56    
    128000   128000         0.2809895      0.24933793     322.53016      289.49473      33.035431      29.314213      297.99999      50.50288       129838.69      129606.26      26665.318      102940.95    
    129000   129000         0.28648029     0.22736053     322.41047      285.4664       36.944074      29.320077      296.58258      191.16779      130299.73      129419.92      26538.487      102881.43    
    130000   130000         0.28099937     0.81065608     304.68187      294.53594      10.14593       29.27003       295.86856      546.33425      131916.55      129402.15      26474.596      102927.55    
    131000   131000         0.29734185     0.27223811     317.199        285.22526      31.973735      29.274282      298.02004     -105.72638      128949.86      129436.45      26667.113      102769.34    
    132000   132000         0.29016736     0.22333753     313.66294      275.60228      38.060666      29.294732      295.66353     -21.93031       129223.34      129324.27      26456.25       102868.02    
    133000   133000         0.28906072     0.24425053     316.11944      281.49514      34.6243        29.256841      297.76136     -45.464922      129195.91      129405.16      26643.966      102761.19    
    134000   134000         0.27862358     0.29349613     317.65833      289.90919      27.749139      29.23035       298.25316     -709.22884      126332.71      129596.8       26687.972      102908.83    
    135000   135000         0.27783877     0.23199007     317.61791      282.64616      34.971747      29.200741      297.9693       272.69244      130720.99      129465.97      26662.572      102803.4     
    136000   136000         0.28330633     0.28743878     319.50018      290.73512      28.765058      29.184639      297.02542     -239.93542      128302.23      129406.49      26578.112      102828.38    
    137000   137000         0.28263963     0.29818176     311.15164      283.45525      27.696389      29.219392      295.89457     -204.35244      128510.8       129451.29      26476.924      102974.37    
    138000   138000         0.28754407     0.22341542     320.41544      282.75943      37.656015      29.257896      298.20683      659.44549      132467.8       129432.83      26683.827      102749.01    
    139000   139000         0.28974523     0.24338732     318.62623      283.79255      34.833677      29.260449      297.32168     -32.172984      129405.78      129553.85      26604.623      102949.23    
    140000   140000         0.27687515     0.48298421     296.23241      279.47398      16.75843       29.233599      295.16047      272.15972      130600.16      129347.6       26411.235      102936.37    
    141000   141000         0.27519023     0.30162716     308.81473      282.14236      26.672372      29.234729      296.96593      730.8945       132837.58      129473.78      26572.79       102900.99    
    142000   142000         0.28082054     0.71360139     306.69695      295.18972      11.50723       29.241364      299.96676     -208.45506      128709.77      129669.15      26841.307      102827.84    
    143000   143000         0.28302593     0.25850532     316.78817      284.73803      32.050139      29.273401      298.1814       347.18053      131252.78      129654.95      26681.551      102973.4     
    144000   144000         0.2835375      0.31412996     306.91509      280.51698      26.398106      29.246347      297.95702      64.406732      129762.06      129465.64      26661.473      102804.17    
    145000   145000         0.28663931     0.23900918     312.12176      277.10671      35.015052      29.19669       297.81405     -124.28295      128962.41      129534.4       26648.68       102885.72    
    146000   146000         0.28085173     0.53308111     309.08168      293.69882      15.38286       29.198012      298.90421      429.02296      131503.9       129529.41      26746.229      102783.18    
    147000   147000         0.28936772     0.23644512     315.78637      280.06158      35.724792      29.191067      297.58494     -413.14598      127623.03      129524.45      26628.179      102896.27    
    148000   148000         0.29327583     0.24424684     318.35049      283.27038      35.080103      29.215515      298.41526     -144.99009      128942.62      129609.91      26702.477      102907.43    
    149000   149000         0.29578583     0.29359399     311.78453      282.33131      29.453218      29.234964      296.70511      494.73132      131766.05      129489.14      26549.451      102939.69    
    150000   150000         0.29559237     0.59978357     307.15276      292.75296      14.399806      29.218505      298.78731     -20.072736      129440.37      129532.75      26735.768      102796.99    
    151000   151000         0.30049804     0.38717633     305.25338      282.55332      22.700056      29.24786       296.75335      521.95462      131862.45      129460.25      26553.768      102906.49    
    152000   152000         0.29132497     0.41641703     312.19457      291.73219      20.462382      29.248726      297.7568       6.9990115      129547.63      129515.42      26643.558      102871.86    
    153000   153000         0.29686182     0.17892744     317.42233      268.86659      48.555738      29.265987      297.39846     -131.06895      128995.54      129598.76      26611.493      102987.27    
    154000   154000         0.29118576     0.29978376     322.9027       294.44366      28.459033      29.299358      298.35266     -194.25927      128499.08      129393.12      26696.876      102696.25    
    155000   155000         0.28972533     0.35503121     312.74475      288.83966      23.90509       29.293445      298.09904     -278.92897      128124.25      129407.96      26674.181      102733.78    
    156000   156000         0.29075601     0.22041962     319.95239      281.33034      38.622046      29.27904       296.16531     -51.252738      129239.95      129475.83      26501.149      102974.68    
    157000   157000         0.28840583     0.21442766     313.55974      274.17813      39.381605      29.27994       298.11537      204.08263      130360.13      129420.88      26675.642      102745.24    
    158000   158000         0.28984394     0.29051184     319.12746      289.92165      29.205814      29.273115      297.99955      290.46205      130893.43      129556.64      26665.279      102891.36    
    159000   159000         0.28703951     0.43548311     312.93749      293.63805      19.299438      29.280218      297.36475      210.65871      130476.59      129507.08      26608.477      102898.6     
    160000   160000         0.28494629     0.32096355     313.19291      287.18607      26.006837      29.294105      297.71972     -92.669524      129166.96      129593.45      26640.239      102953.21    
    161000   161000         0.28684928     0.25009237     310.49588      276.91334      33.582543      29.279271      297.36227      238.35679      130710.63      129613.64      26608.255      103005.39    
    162000   162000         0.28004357     0.26004689     325.81419      294.28067      31.533514      29.281844      299.07384     -352.85632      127945.09      129569.04      26761.408      102807.63    
    163000   163000         0.28372928     0.31855041     313.6042       287.52759      26.076611      29.276905      297.84941     -349.87596      127973.79      129584.03      26651.844      102932.18    
    164000   164000         0.2889468      0.29742056     319.20805      290.7863       28.421752      29.255258      300.05021      314.02482      130995.78      129550.54      26848.774      102701.77    
    165000   165000         0.28552102     0.3127331      314.07915      287.4048       26.674343      29.216589      299.42813      30.234044      129795.9       129656.75      26793.11       102863.64    
    166000   166000         0.2843646      0.4233864      312.48345      292.86166      19.621789      29.214602      299.65805      277.22787      130889.11      129613.22      26813.683      102799.54    
    167000   167000         0.28073264     0.30520283     317.32622      290.46266      26.863558      29.205132      299.97639      12.848041      129744.21      129685.08      26842.168      102842.92    
    168000   168000         0.28713189     0.17140637     332.16233      283.266        48.89633       29.189174      297.52751      573.47946      132261.26      129621.93      26623.04       102998.89    
    169000   169000         0.2904903      0.2919419      316.09512      287.02639      29.068738      29.213995      297.3337       181.9466       130595.58      129758.2       26605.698      103152.5     
    170000   170000         0.28812305     0.25137728     317.50728      283.99955      33.507735      29.234326      299.27694     -80.285755      129375.61      129745.11      26779.581      102965.53    
    171000   171000         0.29292509     0.2716322      313.30572      281.75858      31.547141      29.253961      297.72239     -117.88614      129083.92      129626.47      26640.478      102985.99    
    172000   172000         0.29109291     0.31528812     315.3054       288.30976      26.995637      29.239474      299.25825      392.51889      131461.48      129654.98      26777.909      102877.08    
    173000   173000         0.29567178     0.24652773     319.97866      284.90795      35.070711      29.241555      296.79574     -7.1700704      129477.81      129510.81      26557.561      102953.25    
    174000   174000         0.28908425     0.49573531     315.06243      297.98661      17.075819      29.28242       297.68165      78.644825      129850.33      129488.38      26636.833      102851.55    
    175000   175000         0.29038875     0.65903068     309.70797      296.81006      12.897905      29.271503      296.87134     -85.084579      129042.26      129433.84      26564.325      102869.52    
    176000   176000         0.28256601     0.34329284     303.68547      279.60657      24.0789        29.253744      296.19527      434.29297      131400.42      129401.67      26503.83       102897.84    
    177000   177000         0.28505036     0.33032176     318.44955      293.20367      25.245881      29.255405      297.68415      53.340801      129698.8       129453.3       26637.057      102816.25    
    178000   178000         0.28783674     0.35982903     312.38681      289.00013      23.386679      29.23604       297.65576      52.696093      129648.3       129405.78      26634.517      102771.26    
    179000   179000         0.28779213     0.29651493     310.76711      282.39458      28.372534      29.232488      297.18258      9.5938875      129427.1       129382.95      26592.176      102790.77    
    180000   180000         0.29041953     0.27864809     304.96976      274.49513      30.474625      29.239411      296.7016      -238.45084      128135.45      129232.87      26549.137      102683.73    
    181000   181000         0.28626445     0.33641242     304.78693      279.92262      24.864315      29.220059      296.94327      9.2320554      129250.26      129207.77      26570.762      102637.01    
    182000   182000         0.29063624     0.35572202     309.66698      285.76768      23.899304      29.251373      298.3575      -418.54171      127487.12      129413.37      26697.308      102716.06    
    183000   183000         0.29238757     0.48885888     305.54471      288.05375      17.490961      29.244101      295.76166      162.28081      130393.65      129646.79      26465.03       103181.76    
    184000   184000         0.29150666     0.21455465     320.17221      280.41351      39.758703      29.26319       297.45401      85.718803      129783.65      129389.14      26616.464      102772.68    
    185000   185000         0.29481597     0.18722044     321.66314      275.57275      46.090389      29.26932       298.01265      540.53535      131795.24      129307.54      26666.451      102641.08    
    186000   186000         0.2861174      0.41216569     306.81794      286.49125      20.32669       29.281562      297.21083     -92.583907      129008.79      129434.89      26594.704      102840.18    
    187000   187000         0.28848677     0.28430394     314.5348       284.8313       29.703503      29.272826      297.72325     -15.447022      129400.46      129471.55      26640.556      102831       
    188000   188000         0.29312225     0.28232053     308.05526      277.64023      30.415028      29.294218      299.16997     -205.30986      128546.5       129491.4       26770.009      102721.39    
    189000   189000         0.29166434     0.23470622     320.55505      284.13387      36.421186      29.308618      297.83076      4.5598913      129520.47      129499.48      26650.175      102849.31    
    190000   190000         0.28813363     0.20623327     316.47923      275.5226       40.956626      29.314937      297.55357      392.33148      131166.54      129360.91      26625.372      102735.53    
    191000   191000         0.28821621     0.26890036     320.05889      288.65985      31.399037      29.294716      297.96955     -656.36821      126232.97      129253.77      26662.594      102591.18    
    192000   192000         0.29333783     0.17998314     326.54735      278.83672      47.710629      29.273785      297.71649     -94.203999      128942.56      129376.12      26639.95       102736.17    
    193000   193000         0.28975888     0.38423037     309.4007       287.31774      22.082964      29.282781      296.49068      269.2386       130528.76      129289.65      26530.264      102759.38    
    194000   194000         0.29376774     0.46800184     313.16348      294.78348      18.379994      29.281197      295.90857      281.57774      130717.14      129421.23      26478.177      102943.06    
    195000   195000         0.28869477     0.33011705     310.20382      284.59138      25.612439      29.287343      296.98394     -6.4748592      129333.53      129363.33      26574.401      102788.93    
    196000   196000         0.29264964     0.29315814     313.12122      283.90095      29.22027       29.271042      297.96147      236.86534      130608.49      129518.36      26661.871      102856.49    
    197000   197000         0.28744415     0.33882921     323.09518      298.27106      24.824129      29.261823      298.62615      213.65714      130624.29      129640.98      26721.348      102919.63    
    198000   198000         0.29179315     0.19781929     320.48816      277.30743      43.180726      29.274095      298.29648     -445.90143      127543.62      129595.8       26691.848      102903.95    
    199000   199000         0.29256317     0.25039003     320.77499      286.5611       34.213887      29.281937      297.9951      -113.84648      129020.46      129544.42      26664.881      102879.54    
    200000   200000         0.28850841     0.37480024     308.95814      286.41486      22.543276      29.285888      296.56655     -110.74897      128936.82      129446.52      26537.053      102909.46    
    201000   201000         0.28566194     0.35547952     310.68103      287.14273      23.538301      29.29121       299.00674      66.504823      129823.95      129517.87      26755.404      102762.47    
    202000   202000         0.29349858     0.26595845     312.22257      279.89903      32.323539      29.290494      297.28722     -46.516639      129223.51      129437.59      26601.539      102836.05    
    203000   203000         0.29298588     0.26551897     315.92846      283.5798       32.348665      29.316035      299.06684      142.6088       130091.67      129435.34      26760.781      102674.56    
    204000   204000         0.28436004     0.40612799     309.65387      289.12695      20.526916      29.316901      296.93088      44.260042      129728.54      129524.84      26569.653      102955.18    
    205000   205000         0.28313105     0.40451764     311.50374      290.98506      20.518674      29.315631      297.45867     -328.73363      128024.42      129537.36      26616.88       102920.48    
    206000   206000         0.28355246     0.28679993     312.75102      283.77545      28.975567      29.307418      297.85255      315.44853      130900.54      129448.75      26652.125      102796.62    
    207000   207000         0.28348521     0.2946496      310.88115      282.68528      28.195865      29.306293      297.42699     -31.368723      129260.12      129404.48      26614.045      102790.44    
    208000   208000         0.27833654     0.27975009     324.2921       295.12745      29.164656      29.312771      296.08254     -60.72834       129222.24      129501.73      26493.743      103007.98    
    209000   209000         0.28590525     0.29118479     312.41183      283.64519      28.766641      29.297847      298.03568      127.98575      129869.23      129280.2       26668.512      102611.68    
    210000   210000         0.2828749      0.26664582     320.87686      289.7953       31.081562      29.298352      298.14254      243.07288      130456.67      129337.97      26678.074      102659.9     
    211000   211000         0.28358041     0.3831739      306.38772      284.70065      21.687066      29.303568      297.43433     -182.45641      128528.63      129368.35      26614.702      102753.64    
    212000   212000         0.28086563     0.57795557     311.79461      297.55271      14.241896      29.30648       297.80046      53.080662      129632.92      129388.62      26647.464      102741.16    
    213000   213000         0.28324112     0.24820201     327.71768      294.24511      33.472571      29.331755      298.46572      97.275012      129894.55      129446.87      26706.992      102739.87    
    214000   214000         0.27925289     0.3748034      309.28547      287.45841      21.827057      29.295508      297.75324      277.19213      130608.82      129333.1       26643.239      102689.86    
    215000   215000         0.2781994      0.3682819      309.03508      286.92418      22.110897      29.270528      298.81674      487.8865       131628.58      129383.18      26738.401      102644.78    
    216000   216000         0.28024813     0.28224713     320.54391      291.47615      29.067761      29.2751        298.09446      797.08483      133164.54      129496.11      26673.772      102822.34    
    217000   217000         0.28501096     0.17838531     326.79809      280.03187      46.766213      29.270473      297.71392      618.42535      132421.41      129575.23      26639.72       102935.51    
    218000   218000         0.28450352     0.24967828     318.53182      285.18275      33.34906       29.2669        298.2683       449.55632      131652.68      129583.69      26689.327      102894.36    
    219000   219000         0.27967361     0.37340877     311.81503      289.89624      21.918784      29.265064      297.73426      333.1303       131089.54      129556.37      26641.54       102914.83    
    220000   220000         0.28160923     0.44964914     305.95887      287.62138      18.337494      29.279716      299.25937     -56.704428      129174.22      129435.19      26778.008      102657.19    
    221000   221000         0.2834657      0.32978397     310.38169      285.23176      25.149935      29.259433      298.55708      331.6445       131181.99      129655.66      26715.167      102940.49    
    222000   222000         0.28361065     0.33645844     308.74219      284.07372      24.668475      29.265179      299.00984     -295.48097      128225.4       129585.29      26755.681      102829.61    
    223000   223000         0.28341548     0.68359932     311.61126      299.47374      12.137513      29.275734      299.48498     -163.81784      128790.99      129544.93      26798.197      102746.73    
    224000   224000         0.28437334     0.25632635     310.6212       278.14336      32.477835      29.274632      297.79919     -8.8615164      129506.2       129546.98      26647.35       102899.63    
    225000   225000         0.28406504     0.26880885     316.49618      285.54539      30.950799      29.288534      299.55566     -143.79742      128815.6       129477.4       26804.521      102672.87    
    226000   226000         0.28013852     0.3105302      310.68768      284.28654      26.401145      29.265354      298.10994      66.943386      129735.49      129427.4       26675.157      102752.24    
    227000   227000         0.28118923     0.24395093     320.80933      287.09743      33.711897      29.247382      297.29623     -258.64049      128391.34      129581.69      26602.345      102979.34    
    228000   228000         0.27989006     0.39050879     309.64898      288.68452      20.964459      29.250077      296.11221      37.983774      129722.26      129547.45      26496.398      103051.05    
    229000   229000         0.27725019     0.23660538     314.38148      280.12441      34.257069      29.234991      297.36936     -499.9932       127193.53      129494.66      26608.889      102885.77    
    230000   230000         0.27866495     0.24290925     314.84337      281.30338      33.539991      29.236451      299.37454      519.88762      131921.18      129528.5       26788.314      102740.18    
    231000   231000         0.27844046     0.26128423     307.89823      276.74928      31.148956      29.229699      298.27602     -173.22001      128815.55      129612.76      26690.018      102922.74    
    232000   232000         0.27867341     0.37341671     307.93934      286.13684      21.8025        29.214906      296.14812      110.92295      130190.63      129680.13      26499.611      103180.52    
    233000   233000         0.27634896     0.26141061     318.17298      287.27806      30.894924      29.224865      298.81198      412.04985      131592.46      129696.08      26737.975      102958.11    
    234000   234000         0.27324448     0.27838044     315.20734      286.51886      28.688483      29.227717      299.59144     -13.719824      129799.21      129862.35      26807.722      103054.63    
    235000   235000         0.27387756     0.2166219      324.45735      287.48492      36.972438      29.24314       300.05314      426.28415      131662.46      129700.57      26849.036      102851.54    
    236000   236000         0.27178771     0.27230167     313.58201      284.40782      29.174195      29.229364      297.2716      -47.36765       129464.67      129682.67      26600.141      103082.53    
    237000   237000         0.27577856     0.21261602     319.49948      281.60859      37.890883      29.2126        297.47173     -99.062222      129166.05      129621.97      26618.049      103003.92    
    238000   238000         0.27732467     0.28631103     318.19363      289.88738      28.306258      29.223487      300.30991      89.424612      130073.88      129662.32      26872.012      102790.31    
    239000   239000         0.27852599     0.31261602     312.8367       286.81346      26.023236      29.208335      300.03385      274.04349      131043.2       129781.97      26847.31       102934.66    
    240000   240000         0.2788409      0.33182733     314.62528      290.08664      24.538648      29.201576      300.16327      162.40859      130606.95      129859.5       26858.891      103000.61    
    241000   241000         0.28086219     0.23765275     318.61262      284.10307      34.509542      29.200398      300.42115     -575.66625      127197.91      129847.3       26881.966      102965.33    
    242000   242000         0.28379267     0.2245025      312.86329      275.94332      36.919965      29.206619      299.39331     -140.10287      129231.67      129876.47      26789.994      103086.47    
    243000   243000         0.28351554     0.30012743     312.62728      285.03188      27.595405      29.212288      298.65382      1107.036       134892.91      129797.99      26723.824      103074.17    
    244000   244000         0.28072147     0.2705914      311.99866      281.68759      30.31107       29.217269      299.32607     -350.57242      128286.43      129899.87      26783.978      103115.89    
    245000   245000         0.28058875     0.27262051     308.52533      278.46737      30.057964      29.204369      299.24536      74.020978      130134.86      129794.19      26776.755      103017.44    
    246000   246000         0.2812236      0.21607581     317.98101      279.95294      38.028079      29.218558      299.34806      587.73533      132448.45      129743.51      26785.945      102957.57    
    247000   247000         0.2792148      0.45329422     307.82055      289.82699      17.993567      29.211848      297.97171      157.57458      130381.37      129656.16      26662.788      102993.38    
    248000   248000         0.27779033     0.27045473     317.0057       286.98706      30.018639      29.225938      300.15891      154.71745      130431.18      129719.13      26858.501      102860.63    
    249000   249000         0.28108119     0.21529122     315.96743      277.79748      38.169956      29.235882      299.72314      40.745484      129876.64      129689.12      26819.507      102869.61    
    250000   250000         0.27613494     0.32803509     313.92683      289.3281       24.598732      29.222116      299.33037      82.982017      130080.52      129698.61      26784.362      102914.25    
    251000   251000         0.27634941     0.25978681     310.29692      279.20096      31.095965      29.232273      298.01899      310.78271      131035.85      129605.53      26667.018      102938.52    
    252000   252000         0.28214817     0.28446914     316.36614      287.34946      29.016679      29.255373      299.39841     -475.85522      127609.25      129799.29      26790.45       103008.84    
    253000   253000         0.28062377     0.26872299     314.46002      283.89326      30.566752      29.270468      297.96612      330.75224      131076.79      129554.57      26662.287      102892.28    
    254000   254000         0.27514582     0.44512747     318.39357      300.31223      18.081338      29.251763      301.86558      295.09966      131222.74      129864.6       27011.215      102853.39    
    255000   255000         0.27758062     0.24163313     315.2738       281.66405      33.609755      29.257196      300.08277     -132.81365      129155.92      129767.17      26851.688      102915.49    
    256000   256000         0.27994777     0.15006431     339.65012      285.06133      54.588793      29.261993      299.60578     -129.11809      129212.22      129806.46      26809.006      102997.46    
    257000   257000         0.27817154     0.25108426     314.74299      282.31746      32.425529      29.268055      298.83762     -144.70326      129017.36      129683.33      26740.27       102943.06    
    258000   258000         0.2789138      0.1708173      320.00673      272.23226      47.774465      29.258878      298.47954      63.492504      129850.78      129558.57      26708.229      102850.34    
    259000   259000         0.27652492     0.30298662     314.28369      287.58262      26.701067      29.256192      298.75849     -191.6104       128835.94      129717.79      26733.19       102984.6     
    260000   260000         0.27577947     0.25744162     316.85768      285.54517      31.312513      29.2304        299.39077      479.39656      131892.9       129686.57      26789.766      102896.8     
    261000   261000         0.28138948     0.2691922      312.93594      282.37892      30.557029      29.232486      298.85105      22.640947      129728.94      129624.74      26741.472      102883.26    
    262000   262000         0.28255196     0.66707407     306.06065      293.67276      12.387889      29.246441      297.94855      53.495995      129903.23      129657.03      26660.716      102996.31    
    263000   263000         0.28128384     0.18751148     321.22566      277.32907      43.89659       29.262664      297.11151     -199.87205      128651.51      129571.39      26585.816      102985.57    
    264000   264000         0.27788375     0.30036572     311.44618      284.36911      27.077069      29.267719      297.66628     -374.95914      127993.01      129718.69      26635.457      103083.23    
    265000   265000         0.27843821     0.34107368     318.50473      294.60296      23.901765      29.278535      299.7097       246.51763      130893.86      129759.31      26818.305      102941       
    266000   266000         0.27808424     0.37147366     310.978        289.0542       21.923792      29.286489      299.57729     -8.7260445      129604.99      129645.15      26806.457      102838.69    
    267000   267000         0.27914596     0.18167765     322.35891      277.35956      44.999348      29.2871        297.97321     -444.68839      127656.78      129703.37      26662.922      103040.45    
    268000   268000         0.27956751     0.35648155     306.83674      283.86716      22.969578      29.288922      300.78503     -182.21876      128829.23      129667.86      26914.527      102753.33    
    269000   269000         0.27930693     0.20591921     315.5083       275.751        39.757297      29.311092      297.52346     -139.04755      129106.61      129746.55      26622.678      103123.87    
    270000   270000         0.28112034     0.80858784     311.48727      301.28942      10.197852      29.332134      300.79437      135.51041      130311.7       129688.04      26915.362      102772.68    
    271000   271000         0.28241915     0.24861764     317.57579      284.25836      33.317429      29.329812      299.09168      387.21791      131463.52      129681.42      26763.004      102918.42    
    272000   272000         0.28049574     0.20525305     321.04407      280.96492      40.079152      29.32796       297.94845     -301.05142      128286.89      129672.42      26660.706      103011.72    
    273000   273000         0.27644362     0.23913632     328.18647      294.27104      33.915434      29.338394      301.20524      310.05331      131145.48      129718.52      26952.127      102766.39    
    274000   274000         0.27864797     0.24227187     323.95729      290.22122      33.736068      29.331993      299.41736      262.40519      130942.46      129734.79      26792.146      102942.64    
    275000   275000         0.27979298     0.26031348     319.47601      287.93899      31.537015      29.341372      299.64416      303.14072      131293.87      129898.72      26812.44       103086.28    
    276000   276000         0.27810004     0.3814163      307.99257      286.59366      21.398907      29.348761      299.91728      505.76432      132055.32      129727.64      26836.879      102890.76    
    277000   277000         0.27647019     0.26487078     309.5615       278.90913      30.652372      29.36634       298.30249      168.21033      130527.53      129753.38      26692.386      103060.99    
    278000   278000         0.27116257     0.43272344     317.232        298.83263      18.399369      29.361863      299.43392     -26.327448      129671.36      129792.53      26793.628      102998.9     
    279000   279000         0.27754366     0.18931604     321.56065      278.51214      43.048505      29.36393       296.91503     -125.86098      129243.85      129823.1       26568.235      103254.86    
    280000   280000         0.27774899     0.3133414      313.15259      287.1244       26.028194      29.363602      299.20032     -94.565244      129152.61      129587.83      26772.725      102815.1     
    281000   281000         0.28180502     0.18911431     325.15711      281.36704      43.790066      29.386731      298.95444      222.8655       130818.78      129793.09      26750.723      103042.37    
    282000   282000         0.28133357     0.20689007     323.0419       283.07887      39.963037      29.388443      299.99797      404.39332      131689.62      129828.48      26844.1        102984.38    
    283000   283000         0.27900202     0.3770768      294.00151      272.25907      21.742446      29.38535       296.07133     -143.29976      128956.75      129616.26      26492.74       103123.52    
    284000   284000         0.27695876     0.35524079     308.79647      285.8942       22.90227       29.375567      299.37698      340.72167      131403.76      129835.66      26788.533      103047.12    
    285000   285000         0.27809645     0.18921695     327.80704      284.64612      43.160914      29.366705      301.03883     -280.06201      128530.1       129819.03      26937.236      102881.79    
    286000   286000         0.27719692     0.27532715     315.94684      286.3689       29.577935      29.378423      301.02032     -150.80519      129193.66      129887.71      26935.58       102952.13    
    287000   287000         0.27944809     0.25845111     315.07834      283.3157       31.762643      29.376084      299.8307      -50.614701      129682.92      129915.86      26829.132      103086.73    
    288000   288000         0.27765767     0.84261854     311.5007       301.82366      9.6770451      29.367306      300.8329       130.12717      130435.83      129836.94      26918.81       102918.13    
    289000   289000         0.27902672     0.19981385     320.18163      279.18581      40.995824      29.357523      300.25538      0.46429077     129809.43      129807.29      26867.132      102940.16    
    290000   290000         0.27803973     0.34741374     311.9332       288.42566      23.50754       29.372933      300.62199     -267.24099      128585.45      129815.37      26899.938      102915.43    
    291000   291000         0.27930129     0.27587888     319.63611      289.91343      29.722683      29.358477      299.14996      384.14451      131592.56      129824.61      26768.219      103056.39    
    292000   292000         0.28226557     0.39274459     307.41033      286.30942      21.100912      29.359829      299.74031     -55.876563      129453.8       129710.96      26821.044      102889.92    
    293000   293000         0.27815079     0.65957699     304.95312      292.56876      12.38436       29.366944      298.42997     -374.11129      128026.01      129747.78      26703.793      103043.99    
    294000   294000         0.27970116     0.24848616     315.61881      282.55576      33.063048      29.37317       299.44763     -31.623899      129603.56      129749.1       26794.854      102954.25    
    295000   295000         0.28167478     0.47928277     303.58433      286.32078      17.263553      29.374741      298.3899       430.52117      131631.02      129649.63      26700.208      102949.42    
    296000   296000         0.27894068     0.23214139     317.97151      282.66278      35.308729      29.384805      298.67629     -180.21255      128733.74      129563.14      26725.834      102837.3     
    297000   297000         0.27817227     0.35028607     316.49027      293.15058      23.33969       29.390307      298.26785      60.48929       129952.3       129673.91      26689.287      102984.62    
    298000   298000         0.27694783     0.23482307     322.73886      288.07661      34.662246      29.389993      298.16718     -62.941419      129221.41      129511.09      26680.279      102830.81    
    299000   299000         0.28097309     0.20755252     321.27615      281.49789      39.778265      29.383879      297.83495      87.481227      129900.68      129498.07      26650.551      102847.52    
    300000   300000         0.2768266      0.25520109     312.96227      281.09607      31.866205      29.376839      297.22455      412.64599      131448.48      129549.36      26595.931      102953.43    
    301000   301000         0.27561485     0.29097529     312.16712      284.34186      27.825253      29.375996      297.9311      -201.58442      128556.54      129484.29      26659.154      102825.13    
    302000   302000         0.27537754     0.22545751     319.09458      283.20578      35.888797      29.38293       297.41766     -119.73513      128867.78      129418.84      26613.211      102805.63    
    303000   303000         0.27557575     0.26147134     314.70142      283.73294      30.968475      29.383459      296.75665     -207.59244      128451.87      129407.28      26554.063      102853.21    
    304000   304000         0.27562571     0.23676658     311.66525      277.45189      34.213358      29.389783      296.63231      128.17622      129989.27      129399.37      26542.937      102856.43    
    305000   305000         0.27527384     0.48884393     313.22715      296.67953      16.547614      29.386014      296.59528     -43.618624      129164.77      129365.52      26539.623      102825.89    
    306000   306000         0.27707374     0.25184331     311.50636      279.16158      32.344782      29.399455      298.76604     -19.883908      129396.56      129488.07      26733.865      102754.21    
    307000   307000         0.27309597     0.20841173     327.01985      288.48733      38.532515      29.405884      300.34467      243.43445      130928.08      129807.72      26875.123      102932.6     
    308000   308000         0.27477241     0.22697392     321.97829      286.38858      35.58971       29.398642      299.2966       481.66333      131915.39      129698.63      26781.341      102917.29    
    309000   309000         0.27752049     0.18570333     318.50976      274.57701      43.932754      29.397679      299.56257     -136.02933      128923.53      129549.58      26805.139      102744.44    
    310000   310000         0.2767793      0.2791558      319.81735      290.65548      29.161872      29.412264      300.20758      276.8772       130865.79      129591.52      26862.856      102728.67    
    311000   311000         0.27108084     1.2945274      303.4229       297.26468      6.1582178      29.408134      297.51369     -193.471        128689.06      129579.47      26621.803      102957.66    
    312000   312000         0.27488122     0.37152333     307.72777      285.98059      21.74718       29.393004      298.4511      -12.544823      129490.55      129548.29      26705.684      102842.6     
    313000   313000         0.27534256     0.36500118     310.87428      288.7121       22.162185      29.378762      297.63327     -379.54138      127862.28      129609.05      26632.504      102976.55    
    314000   314000         0.27892537     0.27869621     315.63533      286.21777      29.417558      29.393389      298.66666     -218.1837       128659.12      129663.27      26724.972      102938.3     
    315000   315000         0.27798789     0.42531262     311.52599      292.30983      19.216158      29.400109      298.29795     -61.498082      129312.15      129595.19      26691.98       102903.21    
    316000   316000         0.27359646     0.49956003     306.92598      290.82603      16.09995       29.396915      298.31731      270.87622      130765.13      129518.47      26693.712      102824.76    
    317000   317000         0.27621275     0.24193195     307.17871      273.61678      33.561925      29.396549      297.19296     -140.92036      128689.34      129337.9       26593.105      102744.79    
[...]
   1432000   1432000        0.25621477     0.25291282     317.25962      287.41187      29.847753      29.463092      297.63338     -43.285938      129179.49      129378.7       26632.514      102746.19    
   1433000   1433000        0.25682145     0.22132035     314.92205      280.73382      34.188231      29.462302      298.30153     -207.39117      128446.45      129400.92      26692.3        102708.62    
   1434000   1434000        0.25754368     0.2202562      317.14556      282.69408      34.45148       29.463553      297.29397      106.15945      129890.33      129401.75      26602.143      102799.61    
   1435000   1435000        0.2570306      0.26046425     311.08361      282.00461      29.079005      29.467468      296.83293      607.49976      132053         129257.1       26560.889      102696.21    
   1436000   1436000        0.25709246     0.25080253     312.04463      281.83963      30.205005      29.46602       297.38722     -19.856021      129162.54      129253.92      26610.487      102643.43    
   1437000   1437000        0.25701433     0.21696415     319.92742      285.02358      34.90384       29.464824      298.10584     -650.45624      126342.5       129336.1       26674.79       102661.31    
   1438000   1438000        0.25689736     0.35109285     316.07861      294.52053      21.558077      29.462688      296.46404     -34.939707      129282.77      129443.58      26527.88       102915.7     
   1439000   1439000        0.25682248     0.31392598     312.0538       287.95035      24.103455      29.462767      300.12777      215.37366      130463.42      129472.2       26855.714      102616.49    
   1440000   1440000        0.25701606     0.26794931     317.96385      289.69886      28.26499       29.467359      299.00587     -307.61093      128044.88      129460.6       26755.326      102705.27    
   1441000   1441000        0.25706018     0.26186562     311.53941      282.61177      28.927634      29.468403      297.38691     -111.86628      128745.55      129260.4       26610.459      102649.94    
   1442000   1442000        0.25729831     0.29812209     308.10873      282.67548      25.433249      29.468571      299.37935      212.20803      130395.83      129419.18      26788.745      102630.44    
   1443000   1443000        0.25783347     0.16685564     326.43894      280.89928      45.539664      29.470766      301.10319      195.95414      130669.23      129767.39      26942.995      102824.4     
   1444000   1444000        0.25720543     0.22971447     318.16022      285.15899      33.001227      29.473948      300.2254      -472.45792      127590.84      129765.23      26864.45       102900.78    
   1445000   1445000        0.25700699     0.18619395     312.37225      271.68594      40.68631       29.476027      298.68902     -49.257337      129459.56      129686.26      26726.973      102959.28    
   1446000   1446000        0.25717449     0.14427687     328.95492      276.41503      52.53989       29.475283      299.06748      7.2758118      129803.65      129770.16      26760.839      103009.33    
   1447000   1447000        0.25775975     0.1804822      319.69592      277.59951      42.096408      29.475712      300.09821     -398.56922      128011.54      129845.88      26853.069      102992.81    
   1448000   1448000        0.25716687     0.2250999      312.48859      278.81002      33.678572      29.479081      301.40528     -480.77845      127622.98      129835.67      26970.026      102865.64    
   1449000   1449000        0.25671674     0.41996543     307.62108      289.60116      18.019913      29.478953      300.22585     -611.53152      127063.29      129877.74      26864.49       103013.25    
   1450000   1450000        0.25652599     0.29615102     312.65164      287.11712      25.534518      29.478781      299.81525     -178.66917      129042.97      129865.26      26827.749      103037.51    
   1451000   1451000        0.25670388     0.1984007      319.92936      281.79083      38.138536      29.476424      299.98874      574.36057      132416.99      129773.6       26843.273      102930.33    
   1452000   1452000        0.2564397      0.4956685      308.44013      293.19103      15.249095      29.47475       300.26782     -101.55828      129329.94      129797.34      26868.246      102929.1     
   1453000   1453000        0.25682702     0.2906854      312.00838      285.96724      26.041139      29.474231      298.84263      141.51146      130323.93      129672.65      26740.718      102931.93    
   1454000   1454000        0.25625702     0.39817688     308.26327      289.29423      18.969035      29.474436      299.34623     -512.28601      127350.17      129707.87      26785.781      102922.09    
   1455000   1455000        0.2561126      0.56706951     301.64258      288.33112      13.31146       29.473455      298.50797     -130.45686      129246.5       129846.9       26710.773      103136.13    
   1456000   1456000        0.25685229     0.22967779     313.38564      280.4258       32.959839      29.472749      301.19919     -69.163775      129531.31      129849.63      26951.586      102898.04    
   1457000   1457000        0.2569687      0.23685451     312.82125      280.84336      31.977888      29.474824      299.09024      340.22363      131470.82      129905         26762.875      103142.13    
   1458000   1458000        0.2564038      0.29129381     314.70647      288.76416      25.942316      29.472404      301.577        41.262789      130267.75      130077.85      26985.393      103092.46    
   1459000   1459000        0.25665782     1.5080155      303.19055      298.175        5.0155507      29.469307      301.42811     -139.76784      129246.39      129889.65      26972.07       102917.58    
   1460000   1460000        0.25721032     0.35016064     322.93443      301.28788      21.646545      29.469145      300.79723     -458.00208      127995.04      130102.9       26915.618      103187.29    
   1461000   1461000        0.25765331     0.4282182      309.80736      292.07564      17.731715      29.47          298.95299      432.87628      131889.22      129896.99      26750.593      103146.4     
   1462000   1462000        0.25779799     0.31129331     318.14273      293.73565      24.407074      29.471753      302.3255       269.53401      131211.48      129971.01      27052.369      102918.64    
   1463000   1463000        0.25723816     0.23491163     314.46485      282.193        32.271849      29.470872      300.38305     -1063.5089      125030.91      129925.5       26878.557      103046.95    
   1464000   1464000        0.25734897     0.52143279     309.13392      294.58972      14.544196      29.469016      299.98996     -518.08281      127672.91      130057.29      26843.383      103213.9     
   1465000   1465000        0.25698648     0.26926563     312.8311       284.70572      28.12538       29.469246      300.76328     -400.55416      128046.38      129889.85      26912.58       102977.27    
   1466000   1466000        0.256376       0.42767946     312.76061      295.09615      17.664458      29.467366      301.94431     -916.39367      125788.34      130005.86      27018.26       102987.6     
   1467000   1467000        0.25669464     0.37863399     303.9988       284.02031      19.978495      29.46901       299.68337     -45.167593      129775.05      129982.93      26815.949      103166.98    
   1468000   1468000        0.25625649     0.28275504     302.24301      275.53655      26.706461      29.468079      300.11698     -252.8518       128731.62      129895.32      26854.749      103040.57    
   1469000   1469000        0.25661218     0.25589697     314.88673      285.33824      29.548493      29.466137      299.83229     -265.19483      128734.69      129955.2       26829.274      103125.92    
   1470000   1470000        0.25595415     0.40988903     301.94293      283.54275      18.400179      29.466338      299.30092      347.5178       131372.45      129773.07      26781.727      102991.34    
   1471000   1471000        0.25620995     0.27808072     320.38326      293.23176      27.151499      29.469224      301.46007      754.52792      133484.88      130012.31      26974.93       103037.38    
   1472000   1472000        0.2563264      0.21838424     315.44453      280.85628      34.588254      29.468403      299.06091     -811.25902      126082.41      129816.08      26760.25       103055.82    
   1473000   1473000        0.2557916      0.22324835     313.59459      279.82959      33.764999      29.469225      298.27108      278.7574       131046.05      129763.12      26689.575      103073.55    
   1474000   1474000        0.25629329     0.17682097     328.20446      285.49334      42.71112       29.467106      301.52645     -598.63342      127161.99      129917.08      26980.869      102936.21    
   1475000   1475000        0.2552862      0.28257599     318.23829      291.61902      26.619271      29.464839      301.43652     -339.26696      128256.01      129817.42      26972.822      102844.6     
   1476000   1476000        0.25475013     0.33967042     317.121        295.02317      22.097831      29.464086      300.32639      8.1321907      129943.44      129906.01      26873.487      103032.52    
   1477000   1477000        0.25546358     0.27518456     316.9489       289.59726      27.351642      29.463103      300.47751      105.75484      130534.51      130047.79      26887.009      103160.78    
   1478000   1478000        0.25502729     0.31436477     323.83622      299.93372      23.9025        29.463921      301.74265      236.06601      131072.9       129986.45      27000.215      102986.24    
   1479000   1479000        0.25545241     0.22799132     308.64502      275.62846      33.01656       29.467285      300.38822     -417.06453      127877.84      129797.3       26879.019      102918.28    
   1480000   1480000        0.25492634     0.26558698     318.38449      290.10023      28.284262      29.467068      301.72693     -198.15942      129054.76      129966.75      26998.808      102967.94    
   1481000   1481000        0.25491813     0.38355657     312.78938      293.20856      19.580824      29.461826      299.90758     -198.6721       128966.6       129880.95      26836.011      103044.94    
   1482000   1482000        0.25490719     0.29546085     308.90716      283.48846      25.418699      29.462607      300.10688     -297.44582      128461.67      129830.61      26853.845      102976.76    
   1483000   1483000        0.25428084     1.170697       293.10665      286.70751      6.3991359      29.461319      299.3131      -470.62813      127636.07      129802.05      26782.816      103019.23    
   1484000   1484000        0.25521964     0.18954404     313.34279      273.67541      39.66738       29.459783      300.083        253.46057      130991.33      129824.82      26851.708      102973.12    
   1485000   1485000        0.25515897     0.22625551     321.63895      288.41302      33.225925      29.462215      298.72016     -571.52141      127147.64      129777.95      26729.759      103048.2     
   1486000   1486000        0.25544232     0.27803899     316.47832      289.41014      27.068179      29.462656      302.05445     -55.441797      129580         129835.16      27028.115      102807.04    
   1487000   1487000        0.25467087     0.24923267     320.85167      290.74548      30.10619       29.463307      300.82465     -365.27492      128047.22      129728.33      26918.072      102810.25    
   1488000   1488000        0.25521309     0.38379442     307.02123      287.42882      19.592418      29.46346       299.11255     -324.2951       128165.4       129657.91      26764.871      102893.04    
   1489000   1489000        0.25550581     0.16525018     317.80542      272.25229      45.553128      29.461805      298.05871     -390.94443      127770.04      129569.28      26670.572      102898.71    
   1490000   1490000        0.25527705     0.23244367     323.53552      291.17621      32.359315      29.464921      298.25951      328.54285      131165.93      129653.88      26688.54       102965.34    
   1491000   1491000        0.25516083     0.21560053     320.22246      285.34908      34.873383      29.466591      300.10537     -363.16341      127981.74      129653.13      26853.71       102799.42    
   1492000   1492000        0.25534024     0.18207234     328.46119      287.13471      41.326484      29.46817       299.58228      127.7603       130091.61      129503.61      26806.903      102696.71    
   1493000   1493000        0.25547134     0.21404802     314.58457      279.41472      35.169853      29.467248      296.52826     -158.33173      128717.3       129445.99      26533.626      102912.36    
   1494000   1494000        0.25577751     0.21631817     323.71104      288.86662      34.844416      29.468893      299.8303       109.14792      129958.43      129456.1       26829.096      102627       
   1495000   1495000        0.25534875     0.25048933     316.90311      286.86074      30.042367      29.470645      296.26856     -30.241238      129194.15      129333.33      26510.388      102822.94    
   1496000   1496000        0.25514576     0.23349909     310.06772      277.86498      32.202739      29.470646      298.1709       141.68692      130127.19      129475.1       26680.612      102794.49    
   1497000   1497000        0.25526255     0.33887383     308.25707      286.05866      22.198403      29.469493      298.01257      136.90071      130001.27      129371.21      26666.444      102704.76    
   1498000   1498000        0.25528547     0.39663075     310.64217      291.67613      18.966042      29.467072      298.14897      109.37326      130003.79      129500.42      26678.65       102821.77    
   1499000   1499000        0.25591504     0.20274137     321.06095      283.86371      37.19724       29.468449      297.68463      71.855225      129863         129532.3       26637.1        102895.2     
   1500000   1500000        0.25574256     0.23386335     309.59453      277.3671       32.227434      29.470322      298.71359     -1009.6707      124904.13      129550.95      26729.172      102821.77    
   1501000   1501000        0.25643363     0.19956069     315.55391      277.68313      37.870775      29.471633      297.03215     -78.222099      129241.97      129601.97      26578.715      103023.26    
   1502000   1502000        0.2559691      0.20405679     322.39888      285.42671      36.972178      29.473965      298.26016     -91.062229      129134.8       129553.89      26688.598      102865.29    
   1503000   1503000        0.25524754     0.24062591     318.42791      287.16304      31.264864      29.473884      299.18098      305.4014       130986.81      129581.26      26770.994      102810.26    
   1504000   1504000        0.2552181      0.38385757     321.32519      301.73019      19.594999      29.471612      300.28943      68.746042      129985.75      129669.36      26870.18       102799.18    
   1505000   1505000        0.25542746     0.27150346     314.65272      286.92933      27.723382      29.468226      298.33802     -935.09793      125183.59      129487.2       26695.566      102791.64    
   1506000   1506000        0.25571392     0.37687921     304.76045      284.76661      19.99384       29.467549      298.8902       336.08667      130965.44      129418.66      26744.975      102673.69    
   1507000   1507000        0.25549379     0.31829227     307.24563      283.59398      23.65165       29.46505       298.49582      38.738009      129667.51      129489.23      26709.686      102779.54    
   1508000   1508000        0.25607046     0.30033698     318.29535      293.17523      25.120128      29.462608      298.2837      -211.91433      128638.93      129614.23      26690.705      102923.52    
   1509000   1509000        0.25582454     0.43335653     297.57836      280.18529      17.393079      29.463179      297.26861     -266.21179      128232.89      129458.07      26599.874      102858.2     
   1510000   1510000        0.25582586     0.17429698     324.83051      281.58883      43.241682      29.461034      298.11176      152.08163      130169.91      129469.99      26675.319      102794.67    
   1511000   1511000        0.25575412     0.22523573     320.83477      287.37873      33.45604       29.463829      299.87533     -104.7417       129135.58      129617.64      26833.126      102784.51    
   1512000   1512000        0.25525884     0.4290686      306.81705      289.2869       17.530157      29.466716      298.5994      -242.62537      128383.01      129499.64      26718.954      102780.69    
   1513000   1513000        0.2552159      0.31022036     307.45106      283.21149      24.239568      29.46371       296.00011     -114.75111      128971.64      129499.76      26486.367      103013.39    
   1514000   1514000        0.25534187     0.26240214     315.53174      286.85867      28.673076      29.465895      298.98732      345.65271      131075.57      129484.77      26753.665      102731.1     
   1515000   1515000        0.2559103      0.21396606     319.60775      284.36749      35.240268      29.464314      298.40118     -142.77184      128832.55      129489.63      26701.218      102788.41    
   1516000   1516000        0.25530807     0.2602519      322.12974      293.2233       28.906449      29.466199      299.21957     -510.75319      127136.02      129486.66      26774.447      102712.21    
   1517000   1517000        0.25545315     0.24664252     312.61684      282.09964      30.517199      29.464654      297.83617      262.78793      130646.13      129436.7       26650.66       102786.04    
   1518000   1518000        0.2560235      0.22194668     320.61393      286.62621      33.987713      29.463936      298.72127     -224.25344      128315.17      129347.26      26729.859      102617.4     
   1519000   1519000        0.25648844     0.15668898     314.76784      266.53345      48.23439       29.466425      296.6288      -414.43851      127353.44      129260.81      26542.623      102718.18    
   1520000   1520000        0.25580144     0.21754406     317.52489      282.87461      34.650278      29.468021      298.28528     -383.92361      127559.08      129326.02      26690.846      102635.17    
   1521000   1521000        0.25512248     0.57436663     309.72019      296.63057      13.089624      29.469151      298.15711      237.02789      130567.48      129476.61      26679.378      102797.23    
Loop time of 21766 on 32 procs for 1500000 steps with 30020 atoms

Performance: 5.954 ns/day, 4.031 hours/ns, 68.915 timesteps/s, 2.069 Matom-step/s
99.5% CPU use with 32 MPI tasks x 1 OpenMP threads

MPI task timing breakdown:
Section |  min time  |  avg time  |  max time  |%varavg| %total
---------------------------------------------------------------
Pair    | 9663       | 10676      | 11556      | 498.2 | 49.05
Bond    | 234.89     | 252.9      | 271.89     |  51.9 |  1.16
Kspace  | 7554.8     | 8471.2     | 9523.3     | 571.1 | 38.92
Neigh   | 751.58     | 768.12     | 789.81     |  46.9 |  3.53
Comm    | 1109.7     | 1237       | 1356.7     | 217.0 |  5.68
Output  | 0.27742    | 0.29727    | 0.52778    |   7.7 |  0.00
Modify  | 273.82     | 318.55     | 361.54     | 141.2 |  1.46
Other   |            | 41.73      |            |       |  0.19

Nlocal:        938.125 ave         971 max         852 min
Histogram: 1 0 0 1 1 2 8 6 8 5
Nghost:          10707 ave       10805 max       10616 min
Histogram: 2 2 4 4 7 5 3 0 3 2
Neighs:         512802 ave      543513 max      444083 min
Histogram: 1 0 0 1 2 4 8 6 5 5

Total # of neighbors = 16409675
Ave neighs/atom = 546.62475
Ave special neighs/atom = 10.787475
Neighbor list builds = 58576
Dangerous builds = 0
Total wall time: 6:07:49
