units real
atom_style full
boundary p p p

# styles
pair_style lj/charmm/coul/long 8.0 12.0
kspace_style pppm 1e-6
dielectric 1.000000
bond_style harmonic
angle_style harmonic
dihedral_style fourier
improper_style cvff
special_bonds amber
pair_modify mix arithmetic
neighbor 2.0 bin
neigh_modify delay 0 every 1 check yes

# system definition
read_data ../final.data
Reading data file ...
  orthogonal box = (-35.667086 -39.652884 -27.891195) to (35.667086 39.652884 27.891195)
  4 by 4 by 2 MPI processor grid
  reading atoms ...
  30020 atoms
  reading velocities ...
  30020 velocities
  scanning bonds ...
  3 = max bonds/atom
  scanning angles ...
  6 = max angles/atom
  scanning dihedrals ...
  24 = max dihedrals/atom
  orthogonal box = (-35.667086 -39.652884 -27.891195) to (35.667086 39.652884 27.891195)
  4 by 4 by 2 MPI processor grid
  reading bonds ...
  30010 bonds
  reading angles ...
  56000 angles
  reading dihedrals ...
  75910 dihedrals
Finding 1-2 1-3 1-4 neighbors ...
  special bond factors lj:    0        0        0.5     
  special bond factors coul:  0        0        0.8333333333333334
     4 = max # of 1-2 neighbors
    11 = max # of 1-3 neighbors
    22 = max # of 1-4 neighbors
    26 = max # of special neighbors
  special bonds CPU = 0.073 seconds
  read_data CPU = 0.690 seconds
# do not reset velocities

# vars
variable dt equal 1.0
variable tLog equal 1000
variable nEvery equal 10
variable nRepeat equal 100
variable boolDump equal 0
variable tDump equal 1000

variable tPreeq equal 10000
variable tPrerun equal 10000
variable tDelay equal 1000
variable tTCrun equal 1500000

# desiered temperature difference
variable Tavg equal 300.0
variable TempDiff equal 30.0
variable Thi equal ${Tavg}+(${TempDiff}/2)
variable Thi equal 300+(${TempDiff}/2)
variable Thi equal 300+(30/2)
variable Tlo equal ${Tavg}-(${TempDiff}/2)
variable Tlo equal 300-(${TempDiff}/2)
variable Tlo equal 300-(30/2)

# defining regions
variable hot_lo equal (lz*0)+zlo
variable hot_hi equal (lz*0.05)+zlo
variable cold_lo equal (lz*0.50)+zlo
variable cold_hi equal (lz*0.55)+zlo

# define heating and cooling block regions
region hot block INF INF INF INF ${hot_lo} ${hot_hi} units box
region hot block INF INF INF INF -27.8911949509768 ${hot_hi} units box
region hot block INF INF INF INF -27.8911949509768 -25.1020754558791 units box
region cold block INF INF INF INF ${cold_lo} ${cold_hi} units box
region cold block INF INF INF INF 0 ${cold_hi} units box
region cold block INF INF INF INF 0 2.78911949509768 units box
compute Thot all temp/region hot
compute Tcold all temp/region cold

# STEP 1 - 1st equilibration (nve)
# 1a - thermo output for md1
thermo_style custom step time temp c_Thot c_Tcold press enthalpy etotal ke pe
thermo_modify colname c_Thot Temp_hot colname c_Tcold Temp_cold
thermo_modify flush yes
thermo ${tLog}
thermo 1000

# 1b - nve equilibration
timestep ${dt}
timestep 1
fix md1 all nve
run ${tPreeq}
run 10000

CITE-CITE-CITE-CITE-CITE-CITE-CITE-CITE-CITE-CITE-CITE-CITE-CITE

Your simulation uses code contributions which should be cited:

- Type Label Framework: https://doi.org/10.1021/acs.jpcb.3c08419

@Article{Gissinger24,
 author = {Jacob R. Gissinger, Ilia Nikiforov, Yaser Afshar, Brendon Waters, Moon-ki Choi, Daniel S. Karls, Alexander Stukowski, Wonpil Im, Hendrik Heinz, Axel Kohlmeyer, and Ellad B. Tadmor},
 title = {Type Label Framework for Bonded Force Fields in LAMMPS},
 journal = {J. Phys. Chem. B},
 year =    2024,
 volume =  128,
 number =  13,
 pages =   {3282–-3297}
}

CITE-CITE-CITE-CITE-CITE-CITE-CITE-CITE-CITE-CITE-CITE-CITE-CITE

PPPM initialization ...
  using 12-bit tables for long-range coulomb (src/kspace.cpp:342)
  G vector (1/distance) = 0.25787445
  grid = 54 60 45
  stencil order = 5
  estimated absolute RMS force accuracy = 0.00038404524
  estimated relative force accuracy = 1.1565408e-06
  using double precision FFTW3
  3d grid and FFT values/proc = 12760 6480
Generated 21 of 21 mixed pair_coeff terms from arithmetic mixing rule
Neighbor list info ...
  update: every = 1 steps, delay = 0 steps, check = yes
  max neighbors/atom: 2000, page size: 100000
  master list distance cutoff = 14
  ghost atom cutoff = 14
  binsize = 7, bins = 11 12 8
  1 neighbor lists, perpetual/occasional/extra = 1 0 0
  (1) pair lj/charmm/coul/long, perpetual
      attributes: half, newton on
      pair build: half/bin/newton
      stencil: half/bin/3d
      bin: standard
Per MPI rank memory allocation (min/avg/max) = 20.61 | 20.98 | 21.22 Mbytes
   Step          Time           Temp         Temp_hot      Temp_cold        Press         Enthalpy        TotEng         KinEng         PotEng    
         0   0              297.69673      310.36282      297.60185      213.30029      130639.82      129658.15      26638.183      103019.96    
      1000   1000           299.11432      313.79099      296.40282      126.92638      130241.92      129657.77      26765.029      102892.74    
      2000   2000           297.98715      295.44246      299.24571     -255.02617      128480.62      129654.33      26664.17       102990.16    
      3000   3000           298.11551      295.27447      303.8804      -298.19502      128287.58      129659.96      26675.655      102984.3     
      4000   4000           299.95835      307.74114      304.99952      311.10856      131087.29      129655.47      26840.554      102814.92    
      5000   5000           298.69842      306.66691      291.58773      392.25071      131463.1       129657.84      26727.814      102930.03    
      6000   6000           296.34515      295.2959       298.83329     -179.41996      128831.71      129657.46      26517.242      103140.22    
      7000   7000           296.98053      294.96875      297.93059      223.508        130686.36      129657.71      26574.096      103083.61    
      8000   8000           299.75918      305.11232      314.16404     -23.87276       129539.12      129648.99      26822.733      102826.26    
      9000   9000           299.56213      318.37306      293.96481      145.93954      130328.32      129656.66      26805.1        102851.56    
     10000   10000          299.2864       292.56193      291.67543     -387.29479      127875.8       129658.25      26780.428      102877.82    
Loop time of 145.161 on 32 procs for 10000 steps with 30020 atoms

Performance: 5.952 ns/day, 4.032 hours/ns, 68.889 timesteps/s, 2.068 Matom-step/s
99.5% CPU use with 32 MPI tasks x 1 OpenMP threads

MPI task timing breakdown:
Section |  min time  |  avg time  |  max time  |%varavg| %total
---------------------------------------------------------------
Pair    | 63.776     | 71.212     | 78.706     |  47.3 | 49.06
Bond    | 1.4944     | 1.6676     | 1.8532     |   6.2 |  1.15
Kspace  | 49.761     | 56.98      | 65.156     |  53.1 | 39.25
Neigh   | 4.9895     | 5.1416     | 5.2926     |   3.9 |  3.54
Comm    | 7.4516     | 8.8659     | 10.071     |  21.6 |  6.11
Output  | 0.0012274  | 0.0021603  | 0.0038916  |   1.7 |  0.00
Modify  | 0.049197   | 0.052499   | 0.074495   |   1.9 |  0.04
Other   |            | 1.24       |            |       |  0.85

Nlocal:        938.125 ave        1003 max         881 min
Histogram: 3 1 2 6 5 7 3 2 2 1
Nghost:        10710.8 ave       10865 max       10590 min
Histogram: 4 5 4 3 2 3 5 2 2 2
Neighs:         512796 ave      569864 max      476485 min
Histogram: 4 7 4 3 3 2 4 1 2 2

Total # of neighbors = 16409467
Ave neighs/atom = 546.61782
Ave special neighs/atom = 10.787475
Neighbor list builds = 390
Dangerous builds = 0
unfix md1

# STEP 2 - pre run
# 2a - impose nve
fix md2 all nve

# 2b - impose thermostating
fix hot all langevin ${Thi} ${Thi} 100.0 57485 tally yes
fix hot all langevin 315 ${Thi} 100.0 57485 tally yes
fix hot all langevin 315 315 100.0 57485 tally yes
fix cold all langevin ${Tlo} ${Tlo} 100.0 12490 tally yes
fix cold all langevin 285 ${Tlo} 100.0 12490 tally yes
fix cold all langevin 285 285 100.0 12490 tally yes
fix_modify hot temp Thot
fix_modify cold temp Tcold
# calculate tdiff of regions
variable tdiff equal c_Thot-c_Tcold

# 2c - thermo output
thermo_style custom step time temp c_Thot c_Tcold f_hot f_cold v_tdiff press enthalpy etotal ke pe
WARNING: New thermo_style command, previous thermo_modify settings will be lost (src/output.cpp:904)
thermo_modify colname c_Thot Temp_hot colname c_Tcold Temp_cold               colname f_hot E_hot colname f_cold E_cold               colname v_tdiff dTemp_step
thermo_modify flush yes
thermo ${tLog}
thermo 1000

# 2d - pre run
run ${tPrerun}
run 10000
PPPM initialization ...
  using 12-bit tables for long-range coulomb (src/kspace.cpp:342)
  G vector (1/distance) = 0.25787445
  grid = 54 60 45
  stencil order = 5
  estimated absolute RMS force accuracy = 0.00038404524
  estimated relative force accuracy = 1.1565408e-06
  using double precision FFTW3
  3d grid and FFT values/proc = 12760 6480
Generated 21 of 21 mixed pair_coeff terms from arithmetic mixing rule
Per MPI rank memory allocation (min/avg/max) = 21.59 | 21.84 | 21.97 Mbytes
   Step          Time           Temp         Temp_hot      Temp_cold        E_hot          E_cold       dTemp_step       Press         Enthalpy        TotEng         KinEng         PotEng    
     10000   10000          299.2864       292.48843      291.67543     -0             -0              0.81299496    -387.29479      127875.8       129658.25      26780.428      102877.82    
     11000   11000          297.52026      294.90644      281.06806     -285.72417      194.53827      13.83838      -211.65624      128784.05      129758.16      26622.391      103135.77    
     12000   12000          299.30112      318.03001      277.55038     -559.82201      298.81484      40.479626      623.06351      132806.56      129939.03      26781.745      103157.29    
     13000   13000          298.82621      313.18059      292.02961     -617.90616      302.55779      21.150978      297.19757      131357.28      129989.48      26739.25       103250.23    
     14000   14000          300.91284      309.52148      285.29745     -715.96557      348.38542      24.22403       219.23656      131055.63      130046.64      26925.963      103120.67    
     15000   15000          299.71317      316.02864      279.277       -801.52144      585.65365      36.751641     -240.57714      128790.59      129897.8       26818.615      103079.18    
     16000   16000          299.84789      313.04581      283.45607     -886.88079      536.81724      29.589744      429.44885      132016.03      130039.57      26830.67       103208.91    
     17000   17000          300.24918      309.64915      288.2966      -958.20793      547.64478      21.352548      227.63616      131152.48      130104.83      26866.578      103238.25    
     18000   18000          301.26014      313.29686      288.8027      -974.76634      624.52952      24.494159      70.011156      130366.34      130044.13      26957.039      103087.09    
     19000   19000          299.3025       318.85085      275.53754     -1036.8678      668.27292      43.313309     -205.55662      129130.61      130076.64      26781.868      103294.78    
     20000   20000          299.66559      308.52348      291.35018     -1027.9849      714.66225      17.1733       -553.76796      127473.55      130022.16      26814.358      103207.8     
Loop time of 146.873 on 32 procs for 10000 steps with 30020 atoms

Performance: 5.883 ns/day, 4.080 hours/ns, 68.086 timesteps/s, 2.044 Matom-step/s
99.5% CPU use with 32 MPI tasks x 1 OpenMP threads

MPI task timing breakdown:
Section |  min time  |  avg time  |  max time  |%varavg| %total
---------------------------------------------------------------
Pair    | 63.625     | 70.248     | 78.407     |  46.7 | 47.83
Bond    | 1.4909     | 1.6694     | 1.854      |   6.5 |  1.14
Kspace  | 50.007     | 58.087     | 65.517     |  51.8 | 39.55
Neigh   | 5.0041     | 5.1552     | 5.3099     |   3.9 |  3.51
Comm    | 7.5616     | 8.9417     | 10.148     |  21.2 |  6.09
Output  | 0.00163    | 0.001793   | 0.0043362  |   1.1 |  0.00
Modify  | 1.7263     | 2.4675     | 3.4718     |  39.1 |  1.68
Other   |            | 0.3012     |            |       |  0.21

Nlocal:        938.125 ave         987 max         871 min
Histogram: 2 1 1 2 4 8 5 3 1 5
Nghost:          10717 ave       10880 max       10555 min
Histogram: 5 1 3 3 3 3 6 4 1 3
Neighs:         512928 ave      568575 max      473614 min
Histogram: 4 2 6 6 5 1 2 2 3 1

Total # of neighbors = 16413683
Ave neighs/atom = 546.75826
Ave special neighs/atom = 10.787475
Neighbor list builds = 393
Dangerous builds = 0
unfix md2

# STEP 3 - md for tc caluclation
# 3a - impose nve
fix md3 all nve

# 3b - calculate and output thermal profile
compute ke all ke/atom
variable temp atom c_ke/(1.5*0.001987204)
compute layers all chunk/atom bin/1d z lower 0.05 units reduced
fix bins all ave/chunk ${nEvery} ${nRepeat} ${tLog} layers v_temp file Tprofile_z_lav.dat
fix bins all ave/chunk 10 ${nRepeat} ${tLog} layers v_temp file Tprofile_z_lav.dat
fix bins all ave/chunk 10 100 ${tLog} layers v_temp file Tprofile_z_lav.dat
fix bins all ave/chunk 10 100 1000 layers v_temp file Tprofile_z_lav.dat

# 3c - reset thermostats to zero energy accumulation
fix hot all langevin ${Thi} ${Thi} 100.0 57485 tally yes
fix hot all langevin 315 ${Thi} 100.0 57485 tally yes
fix hot all langevin 315 315 100.0 57485 tally yes
fix cold all langevin ${Tlo} ${Tlo} 100.0 12490 tally yes
fix cold all langevin 285 ${Tlo} 100.0 12490 tally yes
fix cold all langevin 285 285 100.0 12490 tally yes
fix_modify hot temp Thot
fix_modify cold temp Tcold

# 3c - compute average tdiff
fix ave all ave/time ${nEvery} ${nRepeat} ${tLog} v_tdiff ave running
fix ave all ave/time 10 ${nRepeat} ${tLog} v_tdiff ave running
fix ave all ave/time 10 100 ${tLog} v_tdiff ave running
fix ave all ave/time 10 100 1000 v_tdiff ave running

# 3d - time delay run
variable aTime equal time
variable start_time equal ${aTime}
variable start_time equal 20000
run ${tDelay}
run 1000
PPPM initialization ...
  using 12-bit tables for long-range coulomb (src/kspace.cpp:342)
  G vector (1/distance) = 0.25787445
  grid = 54 60 45
  stencil order = 5
  estimated absolute RMS force accuracy = 0.00038404524
  estimated relative force accuracy = 1.1565408e-06
  using double precision FFTW3
  3d grid and FFT values/proc = 12760 6480
Generated 21 of 21 mixed pair_coeff terms from arithmetic mixing rule
Per MPI rank memory allocation (min/avg/max) = 22 | 22.1 | 22.22 Mbytes
   Step          Time           Temp         Temp_hot      Temp_cold        E_hot          E_cold       dTemp_step       Press         Enthalpy        TotEng         KinEng         PotEng    
     20000   20000          299.66559      309.41503      291.35018     -0             -0              18.06485      -553.76796      127473.55      130022.16      26814.358      103207.8     
     21000   21000          301.73347      312.52976      297.42007     -92.660599      77.1297        15.109683      37.448056      130221.23      130048.88      26999.393      103049.49    
Loop time of 14.7318 on 32 procs for 1000 steps with 30020 atoms

Performance: 5.865 ns/day, 4.092 hours/ns, 67.880 timesteps/s, 2.038 Matom-step/s
99.5% CPU use with 32 MPI tasks x 1 OpenMP threads

MPI task timing breakdown:
Section |  min time  |  avg time  |  max time  |%varavg| %total
---------------------------------------------------------------
Pair    | 6.4536     | 7.0482     | 7.8487     |  13.7 | 47.84
Bond    | 0.15044    | 0.16707    | 0.18461    |   2.0 |  1.13
Kspace  | 4.9883     | 5.792      | 6.4667     |  15.2 | 39.32
Neigh   | 0.51986    | 0.53571    | 0.55307    |   1.3 |  3.64
Comm    | 0.76145    | 0.90078    | 1.0188     |   6.8 |  6.11
Output  | 0.00011089 | 0.00012958 | 0.00035313 |   0.0 |  0.00
Modify  | 0.17903    | 0.25803    | 0.35915    |  12.6 |  1.75
Other   |            | 0.02988    |            |       |  0.20

Nlocal:        938.125 ave         997 max         866 min
Histogram: 2 0 1 5 3 7 7 3 2 2
Nghost:        10725.2 ave       10907 max       10580 min
Histogram: 4 5 3 2 4 4 4 1 3 2
Neighs:         512868 ave      559442 max      471270 min
Histogram: 6 0 4 2 5 5 3 2 3 2

Total # of neighbors = 16411784
Ave neighs/atom = 546.695
Ave special neighs/atom = 10.787475
Neighbor list builds = 41
Dangerous builds = 0

# 3f - calculate kappa
variable kappa_inst equal (0.5*(abs(f_hot)+abs(f_cold))/(time-${start_time})/(lx*ly)/2.0)*(lz/2.0)/v_tdiff*69478.5785
variable kappa_inst equal (0.5*(abs(f_hot)+abs(f_cold))/(time-20000)/(lx*ly)/2.0)*(lz/2.0)/v_tdiff*69478.5785
variable kappa equal (0.5*(abs(f_hot)+abs(f_cold))/(time-${start_time})/(lx*ly)/2.0)*(lz/2.0)/f_ave*69478.5785
variable kappa equal (0.5*(abs(f_hot)+abs(f_cold))/(time-20000)/(lx*ly)/2.0)*(lz/2.0)/f_ave*69478.5785

# 3e - thermo out
# dump dump_tc all custom 1000 dump.tc_x_ehex.lammpstrj id type mol x y z ix iy iz vx vy vz
thermo_style custom step time v_kappa v_kappa_inst c_Thot c_Tcold v_tdiff f_ave temp press enthalpy etotal ke pe
WARNING: New thermo_style command, previous thermo_modify settings will be lost (src/output.cpp:904)
thermo_modify colname v_kappa kappa colname v_kappa_inst kappa_inst               colname c_Thot Temp_hot colname c_Tcold Temp_cold               colname v_tdiff dTemp_step colname f_ave dTemp
thermo_modify flush yes
thermo ${tLog}
thermo 1000

# 2g - md run for kappa calculation
# optional traj dump
if "${boolDump} == 1" then     "dump tc_dump all atom ${tDump} dump.tc_z.lammpstrj"
run ${tTCrun}
run 1500000
PPPM initialization ...
  using 12-bit tables for long-range coulomb (src/kspace.cpp:342)
  G vector (1/distance) = 0.25787445
  grid = 54 60 45
  stencil order = 5
  estimated absolute RMS force accuracy = 0.00038404524
  estimated relative force accuracy = 1.1565408e-06
  using double precision FFTW3
  3d grid and FFT values/proc = 12760 6480
Generated 21 of 21 mixed pair_coeff terms from arithmetic mixing rule
Per MPI rank memory allocation (min/avg/max) = 22.25 | 22.35 | 22.47 Mbytes
   Step          Time          kappa        kappa_inst      Temp_hot      Temp_cold      dTemp_step       dTemp           Temp          Press         Enthalpy        TotEng         KinEng         PotEng    
     21000   21000          0              0              313.37833      297.42007      15.958257      22.401883      301.73347      37.448056      130221.23      130048.88      26999.393      103049.49    
     22000   22000          0.39748517     0.32461459     310.11614      279.00582      31.110323      25.406897      299.18277      301.05359      131374.22      129988.68      26771.154      103217.53    
     23000   23000          0.49749651     0.59195132     314.8846       292.71089      22.173714      26.38362       301.86216     -188.11164      129042.32      129908.07      27010.909      102897.16    
     24000   24000          0.40216587     0.39026748     318.13392      290.1798       27.954117      27.127073      300.87739     -358.69948      128276.42      129927.27      26922.791      103004.48    
     25000   25000          0.49857218     0.52865774     317.47545      291.0355       26.439956      28.035433      300.74367      816.46921      133705.49      129947.85      26910.825      103037.02    
     26000   26000          0.49822387     1.0240797      309.1069       295.30141      13.805486      28.376637      298.73427     -177.12211      129080.36      129895.53      26731.023      103164.51    
     27000   27000          0.44611137     0.58886924     312.47015      291.07933      21.390825      28.235995      299.57414     -88.285009      129618.68      130025         26806.175      103218.82    
     28000   28000          0.5308449      0.31302784     324.2461       277.4407       46.805391      27.600134      300.92844      222.38534      130891.65      129868.17      26927.359      102940.81    
     29000   29000          0.50088555     0.67640981     320.07435      299.38003      20.694312      27.946176      300.56984      462.45229      131988.88      129860.53      26895.271      102965.26    
     30000   30000          0.46014574     0.67623802     306.31989      287.08441      19.235478      28.268786      299.38186      140.31398      130609.26      129963.49      26788.97       103174.52    
     31000   31000          0.45328695     0.40229519     310.03375      278.37637      31.657384      28.09614       300.11991      603.98217      132462.15      129682.44      26855.01       102827.43    
     32000   32000          0.42631382     0.3767144      314.91906      282.97395      31.945105      28.228456      299.48596      186.20535      130556.37      129699.4       26798.284      102901.11    
     33000   33000          0.44347411     0.34894433     314.7652       278.83791      35.927295      28.269127      298.17317      110.87961      130150.28      129639.98      26680.815      102959.16    
     34000   34000          0.39794582     0.27039167     319.26955      277.05319      42.216369      28.684695      299.01918      298.33838      131086.67      129713.62      26756.516      102957.11    
     35000   35000          0.37629037     0.29124954     318.84438      281.82753      37.016845      28.651117      299.29016      21.913219      129832.25      129731.39      26780.764      102950.63    
     36000   36000          0.34041875     0.99994611     305.98814      296.24903      9.7391079      28.607657      299.70696      722.83489      133037.48      129710.77      26818.059      102892.71    
     37000   37000          0.38539068     0.37584065     318.81395      289.43121      29.382743      28.654635      300.00426     -69.193749      129414.72      129733.17      26844.662      102888.51    
     38000   38000          0.38112411     0.28872481     315.0683       277.35588      37.712411      28.569457      298.7786      -124.12039      129195.26      129766.5       26734.989      103031.51    
     39000   39000          0.33062836     1.1287625      303.90058      295.56838      8.3321964      28.446051      299.73278      274.84035      131041.5       129776.6       26820.37       102956.23    
     40000   40000          0.37202265     0.38477859     316.23551      288.58995      27.645556      28.59347       299.65247      143.33482      130397.69      129738.02      26813.184      102924.83    
     41000   41000          0.35756257     0.39567518     309.81825      283.88365      25.9346        28.69897       299.46713     -171.4279       128849.1       129638.06      26796.599      102841.46    
     42000   42000          0.33783479     1.1163529      301.73783      293.08083      8.6569924      28.606463      297.51104     -272.85438      128403.34      129659.1       26621.567      103037.53    
     43000   43000          0.39388285     0.30076499     319.21011      281.92645      37.283665      28.469433      298.74374     -198.23592      128899.65      129811.99      26731.87       103080.12    
     44000   44000          0.37127802     0.45387        310.21457      286.97866      23.235901      28.404802      299.23025      49.239719      130041.93      129815.32      26775.403      103039.91    
     45000   45000          0.39579282     0.5332564      318.92549      297.87118      21.054313      28.366727      298.98985      140.20333      130346.72      129701.46      26753.892      102947.57    
     46000   46000          0.37581408     0.40798819     311.98273      285.9878       25.994928      28.2204        298.46448     -453.77305      127526.27      129614.67      26706.881      102907.79    
     47000   47000          0.39476769     0.39484583     310.40871      282.16228      28.24643       28.252022      298.62894     -358.53897      128134.4       129784.5       26721.597      103062.91    
     48000   48000          0.37363695     0.41187969     322.49149      296.76983      25.72166       28.354341      303.15571      460.11865      131994.47      129876.86      27126.657      102750.2     
     49000   49000          0.3632881      0.54191107     313.61911      294.55907      19.060035      28.43155       299.84674      437.00434      131729.56      129718.33      26830.567      102887.77    
     50000   50000          0.3838847      0.26288292     325.48569      283.87319      41.612499      28.496096      300.24437      25.128255      129946.76      129831.11      26866.147      102964.97    
     51000   51000          0.35523318     0.32206761     312.08366      280.57949      31.504168      28.56285       298.0472       284.48883      130999.94      129690.63      26669.542      103021.09    
     52000   52000          0.34765678     0.36400082     316.27506      288.91147      27.363587      28.650003      298.10465      268.91228      130969.63      129732.01      26674.684      103057.33    
     53000   53000          0.35322662     0.29203993     316.88546      282.23691      34.648551      28.646653      297.98122      230.99819      130800.29      129737.17      26663.639      103073.53    
     54000   54000          0.35860589     0.34176109     314.82037      284.65189      30.168474      28.75137       299.68664      30.680482      129987.06      129845.85      26816.241      103029.61    
     55000   55000          0.36046377     0.37239413     310.94819      283.07923      27.868958      28.791344      299.37852     -290.1478       128410.77      129746.12      26788.671      102957.45    
     56000   56000          0.35272077     0.32008301     321.75655      290.00407      31.752485      28.814383      299.64305     -283.80979      128273.7       129579.88      26812.341      102767.54    
     57000   57000          0.35640563     0.4607845      314.05994      291.8098       22.250137      28.766432      296.32857     -219.91386      128584.64      129596.75      26515.758      103080.99    
     58000   58000          0.35608733     0.42107875     308.23081      283.8915       24.339308      28.781606      296.59708     -1.8781054      129496.86      129505.5       26539.784      102965.72    
     59000   59000          0.34432936     0.4958788      313.81559      293.83969      19.975899      28.767878      297.70924      189.67877      130358.29      129485.33      26639.302      102846.03    
     60000   60000          0.35245096     0.28873        317.98465      282.85154      35.133106      28.781257      298.32594     -442.18045      127570.46      129605.51      26694.485      102911.03    
     61000   61000          0.36338944     0.38420096     316.45147      289.212        27.239475      28.799495      296.9543       50.400319      129684.18      129452.22      26571.749      102880.47    
     62000   62000          0.35295932     0.29591234     318.39936      283.99072      34.408643      28.847353      297.07486     -77.353461      129191.32      129547.32      26582.537      102964.79    
     63000   63000          0.37586417     0.23930134     318.73249      273.3044       45.428092      28.922692      299.21796      854.53802      133471.55      129538.71      26774.304      102764.4     
     64000   64000          0.3570746      0.421297       310.66877      286.12355      24.545221      28.959853      295.94755      211.49984      130555.52      129582.13      26481.664      103100.47    
     65000   65000          0.34818185     0.34754372     321.07779      292.08737      28.99042       28.937288      296.87823     -226.77272      128468.29      129511.97      26564.942      102947.03    
     66000   66000          0.34857872     0.30134638     318.35299      284.87114      33.481855      28.945071      295.72081     -367.27819      127618.51      129308.84      26461.375      102847.47    
     67000   67000          0.33854586     0.64980593     297.51034      282.44597      15.064372      28.914601      299.17006     -643.74106      126405.21      129367.9       26770.017      102597.89    
     68000   68000          0.32498663     0.48613563     310.5778       291.19436      19.383437      28.994976      294.93079     -462.80605      127078.72      129208.7       26390.684      102818.01    
     69000   69000          0.32676463     0.28139122     312.99727      279.24551      33.751766      29.065111      296.7796      -214.62718      128281.59      129269.37      26556.116      102713.26    
     70000   70000          0.33076837     0.23835853     320.8023       280.41164      40.390662      29.106346      296.57561      142.79313      130082.75      129425.57      26537.863      102887.7     
     71000   71000          0.32082412     0.32763483     318.01972      289.56728      28.45244       29.056451      297.67042      268.39142      130661.13      129425.91      26635.828      102790.08    
     72000   72000          0.32225956     0.4739283      301.57581      281.81621      19.7596        29.059289      297.19438      126.46449      129982.58      129400.55      26593.232      102807.32    
     73000   73000          0.31397724     0.41917996     315.1884       293.46007      21.728328      29.008726      297.13308      420.3561       131364.58      129429.97      26587.747      102842.23    
     74000   74000          0.31828551     0.28347197     315.03436      282.47537      32.558996      28.997748      296.47881      265.84166      130556.74      129333.26      26529.201      102804.06    
     75000   75000          0.31256651     0.24551594     317.36596      280.38761      36.978347      29.045894      294.74639      102.49125      129760.84      129289.14      26374.183      102914.96    
     76000   76000          0.31662362     0.25979021     316.8369       281.47133      35.365579      29.017517      297.59332      596.0894       132025.08      129281.69      26628.929      102652.76    
     77000   77000          0.31133686     0.31791758     313.85193      285.43552      28.416409      29.017045      296.81073      147.01002      129940.76      129264.17      26558.902      102705.27    
     78000   78000          0.31001285     0.25714754     315.30306      280.30223      35.000829      29.03227       296.73611     -359.77371      127711.79      129367.58      26552.225      102815.35    
     79000   79000          0.29557239     0.53856888     306.99049      291.06563      15.924854      29.017023      297.13664     -89.878821      128874.78      129288.43      26588.065      102700.37    
     80000   80000          0.29804791     0.30109344     318.31844      289.61261      28.705828      28.999152      296.75628      468.20183      131577.78      129422.98      26554.03       102868.95    
     81000   81000          0.29500039     0.27622583     311.87603      280.94492      30.931117      28.962583      296.57875     -73.632618      128936.97      129275.85      26538.144      102737.71    
     82000   82000          0.29737065     0.52794141     308.50626      292.17642      16.329841      28.991426      296.85017     -203.66384      128448.07      129385.39      26562.432      102822.96    
     83000   83000          0.30091927     0.25289172     315.10971      280.59403      34.515673      29.006876      295.51009     -282.936        128008.92      129311.08      26442.52       102868.56    
     84000   84000          0.29080621     0.62194088     301.75409      288.18651      13.567583      29.016692      297.25897      395.0603       131093.53      129275.35      26599.011      102676.33    
     85000   85000          0.29203768     0.24290784     312.81389      278.02127      34.792626      28.939421      296.34182      40.444222      129431.91      129245.78      26516.944      102728.83    
     86000   86000          0.29884877     0.47156916     307.00794      288.66332      18.344615      28.94693       298.34268      458.26298      131475.27      129366.2       26695.983      102670.22    
     87000   87000          0.2974738      0.19381172     316.67573      272.19458      44.481146      28.980594      296.79214      266.73194      130495.66      129268.08      26557.239      102710.84    
     88000   88000          0.29856195     0.32137039     320.04678      293.12244      26.924335      28.981202      299.17886     -288.1768       128103.97      129430.25      26770.805      102659.44    
     89000   89000          0.29339498     0.31672606     320.76026      293.85416      26.906103      29.045704      295.91261      116.89777      129774.48      129236.48      26478.537      102757.94    
     90000   90000          0.29520609     0.18888366     319.58819      274.29695      45.291241      28.978993      295.85614      335.60872      130667.74      129123.17      26473.484      102649.69    
     91000   91000          0.29495684     0.32002007     315.69833      288.94367      26.754654      29.028065      296.678       -285.38404      127980.54      129293.97      26547.025      102746.94    
     92000   92000          0.29482687     0.44633233     309.6352       290.46873      19.166464      29.015715      295.63167      581.1271       132066.12      129391.59      26453.398      102938.2     
     93000   93000          0.29695038     0.46524218     306.28556      287.80664      18.47892       28.951548      296.7161      -290.19564      128076.36      129411.93      26550.434      102861.5     
     94000   94000          0.2961699      0.24484899     316.62635      281.58606      35.040284      28.968433      296.28023     -82.097025      128882.75      129260.58      26511.433      102749.15    
     95000   95000          0.29448117     0.30893292     321.60024      294.03555      27.564687      28.917432      298.3938       304.06583      130769.34      129369.94      26700.557      102669.38    
     96000   96000          0.28959983     0.49780646     314.65115      297.86038      16.790763      28.862415      299.54728      127.57122      130098.91      129511.79      26803.771      102708.01    
     97000   97000          0.28759346     0.30684279     319.25197      292.21649      27.035481      28.84503       297.65255     -35.520867      129340.57      129504.05      26634.229      102869.82    
     98000   98000          0.289012       0.33449612     313.92944      289.02327      24.906166      28.825848      296.50695     -39.124304      129141.07      129321.13      26531.719      102789.41    
     99000   99000          0.29028824     0.44022239     308.17888      289.18103      18.997848      28.810253      298.35676     -228.23277      128323.56      129373.96      26697.242      102676.71    
    100000   100000         0.29569477     0.20916387     326.33735      285.58136      40.755991      28.829326      297.83507     -251.53441      128296.97      129454.61      26650.561      102804.05    
    101000   101000         0.28787802     0.24675776     320.73987      287.10177      33.6381        28.833262      298.24537     -131.18512      128591.93      129195.68      26687.275      102508.41    
    102000   102000         0.28822337     0.22680086     317.89175      281.29185      36.5999        28.800194      294.86274      199.75828      130174.46      129255.11      26384.595      102870.51    
    103000   103000         0.29143447     0.33885964     308.81575      284.06371      24.752038      28.77994       297.06708     -75.668765      128942.91      129291.16      26581.841      102709.32    
    104000   104000         0.29463849     0.30249456     314.19839      286.19236      28.006029      28.752765      297.84035     -313.20313      127835.7       129277.15      26651.034      102626.12    
    105000   105000         0.30485523     0.15513479     328.09782      271.60604      56.491782      28.747549      296.3703      -402.59371      127474.74      129327.6       26519.492      102808.1     
    106000   106000         0.29087432     0.49266402     305.35938      288.40728      16.952093      28.712354      295.60115      482.842        131452.86      129230.67      26450.668      102780       
    107000   107000         0.29149487     0.41115739     307.53762      287.22511      20.31251       28.651066      294.798        506.41884      131430.61      129099.92      26378.801      102721.12    
    108000   108000         0.2953627      0.42031744     312.61708      292.46099      20.156085      28.683223      295.29612     -97.372586      128647.51      129095.65      26423.373      102672.28    
    109000   109000         0.29484184     0.26580084     314.61559      282.81451      31.801083      28.668776      296.26868      333.05622      130796.61      129263.79      26510.399      102753.39    
    110000   110000         0.29694211     0.25216349     324.06537      290.3709       33.694465      28.613369      298.42782      1039.6961      134067.24      129282.25      26703.601      102578.64    
    111000   111000         0.29902264     0.23574638     321.93822      285.61138      36.326842      28.63971       296.69714      255.07775      130628.48      129454.53      26548.738      102905.79    
    112000   112000         0.29312273     0.32983223     313.40313      287.97163      25.431504      28.616441      298.42458      110.40811      130042.99      129534.86      26703.311      102831.55    
    113000   113000         0.29378854     0.50248207     307.64488      290.92808      16.716803      28.591631      296.89307      332.6766       131077.18      129546.1       26566.27       102979.83    
    114000   114000         0.29134395     0.23212158     330.05054      294.15005      35.900492      28.60289       297.73813      325.67639      131115.71      129616.85      26641.887      102974.96    
    115000   115000         0.28768901     0.51759663     305.84431      289.94991      15.894404      28.596468      296.18339      102.93283      129895.13      129421.4       26502.767      102918.64    
    116000   116000         0.29085183     0.28413854     309.93753      280.71521      29.222311      28.547817      297.0751       435.84907      131492.85      129486.94      26582.558      102904.38    
    117000   117000         0.29327093     0.20143013     314.2325       272.66591      41.566592      28.549587      296.24696     -199.3947       128477.77      129395.45      26508.456      102886.99    
    118000   118000         0.29244726     0.23750974     321.42353      286.24138      35.182149      28.573027      299.193        124.66404      129893.84      129320.1       26772.07       102548.03    
    119000   119000         0.2841392      0.46355822     309.36408      291.86756      17.496514      28.544645      297.2997      -422.62994      127431.28      129376.35      26602.656      102773.7     
    120000   120000         0.29211946     0.26637076     316.18546      284.88458      31.300881      28.541883      296.25276     -524.49175      126905.62      129319.5       26508.975      102810.52    
    121000   121000         0.28992503     0.33427693     310.96438      286.18411      24.780278      28.571094      297.32943     -211.6386       128345.08      129319.11      26605.316      102713.79    
    122000   122000         0.28714967     0.23958254     312.26533      278.03318      34.232151      28.561501      296.7613       48.032072      129283.35      129062.29      26554.479      102507.81    
    123000   123000         0.28754383     0.2010479      320.32458      279.47925      40.845327      28.558662      298.40708      234.87947      130412.82      129331.83      26701.745      102630.09    
    124000   124000         0.28309405     0.26944144     316.98516      286.95159      30.033573      28.585162      294.33411      124.84569      129910.75      129336.17      26337.292      102998.88    
    125000   125000         0.28595201     0.21839805     314.90242      277.47861      37.423816      28.582727      297.63685     -449.84044      127239.12      129309.42      26632.825      102676.59    
    126000   126000         0.28882007     0.21150037     321.5042       282.46056      39.043643      28.591313      297.44346     -598.20785      126586.38      129339.52      26615.52       102724       
    127000   127000         0.2840082      0.25978893     317.15899      285.90668      31.252311      28.587219      296.14998     -117.36704      128705.29      129245.45      26499.777      102745.67    
    128000   128000         0.28475312     0.36872733     311.74544      289.68641      22.059024      28.564269      297.39144      674.36641      132316.35      129212.71      26610.865      102601.85    
    129000   129000         0.29099015     0.26909885     321.93146      291.05386      30.877598      28.554665      297.4091       212.57216      130411.97      129433.65      26612.445      102821.2     
    130000   130000         0.28895622     0.27176025     313.66743      283.30354      30.363897      28.556922      296.58179     -27.953792      129148.53      129277.18      26538.417      102738.77    
    131000   131000         0.2841006      0.33871585     315.72906      291.78234      23.94672       28.550216      295.96996      43.711575      129480.22      129279.05      26483.67       102795.38    
    132000   132000         0.2845673      0.23903659     319.11941      285.15286      33.966554      28.531913      296.47977     -232.34614      128219.5       129288.83      26529.288      102759.54    
    133000   133000         0.28839211     0.39293599     313.4218       292.49118      20.930616      28.518091      297.67515      715.68055      132536.52      129242.74      26636.251      102606.49    
    134000   134000         0.29001362     0.43347116     307.60597      288.52865      19.077317      28.514064      296.04883      265.31511      130309.23      129088.16      26490.727      102597.44    
    135000   135000         0.29104617     0.31549412     309.85415      283.60271      26.25144       28.456567      295.1947       309.41725      130506.82      129082.78      26414.298      102668.48    
    136000   136000         0.2903389      0.35437458     309.93033      286.61324      23.317085      28.459783      297.09771      323.25795      130722.08      129234.34      26584.581      102649.76    
    137000   137000         0.2885118      0.30948131     313.2015       286.6429       26.558596      28.488917      297.7379       352.90523      131022.87      129398.69      26641.866      102756.83    
    138000   138000         0.29143525     0.2113949      321.42158      282.12508      39.296497      28.50403       296.15132      288.71396      130611.49      129282.74      26499.897      102782.84    
    139000   139000         0.29090551     0.23051772     307.56115      271.54858      36.012563      28.536874      294.97281     -518.4046       126947.59      129333.45      26394.444      102939.01    
    140000   140000         0.29341013     0.28260048     321.39069      291.7506       29.640088      28.548105      296.9571      -296.82169      128045.12      129411.18      26571.999      102839.18    
    141000   141000         0.29303396     0.25043595     314.02187      280.62007      33.401799      28.546217      296.82546      155.94021      129928.25      129210.57      26560.22       102650.35    
    142000   142000         0.29596186     0.20670991     322.20222      281.28231      40.919907      28.579865      298.52178      561.68749      131839.29      129254.23      26712.009      102542.22    
    143000   143000         0.29303391     0.59725487     300.45169      286.40379      14.047901      28.632104      297.29299      553.88458      131765.68      129216.53      26602.056      102614.47    
    144000   144000         0.29130514     0.28904927     310.04047      281.16298      28.877487      28.65386       296.19188     -304.40396      127790.62      129191.58      26503.527      102688.05    
    145000   145000         0.29523258     0.37219546     308.28573      285.54962      22.736115      28.663092      297.06799      1.0595149      129243.67      129238.79      26581.922      102656.87    
    146000   146000         0.29066285     0.35143232     314.21668      290.51303      23.70365       28.65942       297.0651      -507.43387      126882.81      129218.18      26581.663      102636.51    
    147000   147000         0.29390237     0.2429732      315.51286      280.81403      34.698823      28.686002      295.00255      26.76476       129233.66      129110.48      26397.104      102713.38    
    148000   148000         0.29106112     0.3857477      309.67763      288.03526      21.642362      28.68295       295.97966      215.01159      130244.58      129255.03      26484.537      102770.49    
    149000   149000         0.2865012      0.35958596     311.06698      288.22239      22.844597      28.672118      296.67723     -292.13191      127927.01      129271.49      26546.957      102724.53    
    150000   150000         0.28874153     0.22326179     317.22861      280.19421      37.034395      28.635872      295.54824     -79.694697      128759.04      129125.82      26445.933      102679.89    
    151000   151000         0.29049581     0.4209938      312.28427      292.52346      19.760807      28.637856      296.2153      -161.50649      128502.12      129245.43      26505.622      102739.8     
    152000   152000         0.28901049     0.33040399     315.30529      290.24099      25.064305      28.654138      295.37093     -447.67699      127019.73      129080.07      26430.067      102650.01    
    153000   153000         0.28770958     0.31025459     309.11269      282.53839      26.574296      28.656666      294.90054     -126.1117       128553.4       129133.81      26387.977      102745.83    
    154000   154000         0.28794553     0.21794377     328.48767      290.58431      37.903364      28.688766      297.92451     -256.54263      128064.25      129244.93      26658.564      102586.37    
    155000   155000         0.285357       0.34713623     312.69768      289.07905      23.61863       28.732017      294.3058       181.19203      129872.73      129038.83      26334.759      102704.07    
    156000   156000         0.28768773     0.36270218     310.15641      287.36149      22.794923      28.73869       295.43788      149.4877       129744.88      129056.9       26436.059      102620.84    
    157000   157000         0.2810197      0.41352889     310.68966      291.18232      19.507336      28.705628      297.24477     -149.50659      128585.18      129273.26      26597.74       102675.52    
    158000   158000         0.28238996     0.4143545      316.80372      297.25324      19.550481      28.686677      296.7568       227.57611      130250.58      129203.21      26554.076      102649.13    
    159000   159000         0.28563691     0.28383703     316.83143      287.96711      28.864322      28.68244       296.7862       80.75439       129654.11      129282.45      26556.707      102725.74    
    160000   160000         0.28519632     0.26645896     321.69582      290.97664      30.719182      28.700936      297.91757      218.38121      130399.86      129394.81      26657.943      102736.86    
    161000   161000         0.28661738     0.26788843     318.09418      287.38032      30.713863      28.706872      295.86192     -667.64895      126215.44      129288.17      26474.002      102814.17    
    162000   162000         0.28464024     0.257798       321.15692      289.44377      31.713159      28.722534      297.04991      121.32446      129760.13      129201.76      26580.305      102621.45    
    163000   163000         0.28040878     0.37252174     310.73301      289.09927      21.633734      28.740314      297.09756     -330.87396      127737.12      129259.9       26584.568      102675.33    
    164000   164000         0.28368628     0.58452911     298.65203      284.70442      13.947609      28.738729      292.43288     -545.83892      126667.58      129179.7       26167.168      103012.53    
    165000   165000         0.28353645     0.19525429     319.53748      277.773        41.764474      28.760649      295.7572      -350.26568      127701.15      129313.18      26464.632      102848.55    
    166000   166000         0.28255786     0.17830099     330.11291      284.51932      45.593588      28.77068       298.09322     -6.0016792      129494.04      129521.66      26673.661      102848       
    167000   167000         0.28581981     0.20407678     316.77435      276.46621      40.308146      28.780219      294.51578     -126.992        128642.39      129226.85      26353.548      102873.3     
    168000   168000         0.28804952     0.23409539     311.8421       276.38678      35.45532       28.814237      297.53934      117.56125      129820.02      129278.97      26624.099      102654.87    
    169000   169000         0.28199825     0.25482579     315.46606      283.58607      31.879997      28.808141      294.90281      304.14583      130481.14      129081.37      26388.18       102693.19    
    170000   170000         0.28002695     0.17980413     329.31315      284.43556      44.877588      28.815712      295.9836       316.50799      130600.57      129143.91      26484.89       102659.02    
    171000   171000         0.27947624     0.33956914     314.98659      291.26105      23.725542      28.827         296.78176     -385.81034      127583.14      129358.76      26556.31       102802.45    
    172000   172000         0.27796243     0.25752803     322.03978      290.92321      31.116562      28.82903       297.4002      -275.04452      127931.18      129197.02      26611.648      102585.37    
    173000   173000         0.28098021     0.19623814     324.60259      283.394        41.208586      28.780304      297.13924      608.97031      131970.98      129168.31      26588.297      102580.01    
    174000   174000         0.28089603     0.19012424     320.46581      277.89281      42.573005      28.815502      295.08039     -623.34179      126310.93      129179.74      26404.07       102775.67    
    175000   175000         0.27663611     0.19325638     317.86496      276.5894       41.275559      28.834866      297.06386     -456.45587      127231.5       129332.25      26581.552      102750.7     
    176000   176000         0.27475662     0.30751146     308.53188      282.7752       25.75668       28.827237      296.12981      20.433435      129308.25      129214.21      26497.972      102716.24    
    177000   177000         0.27561622     0.36231041     314.79674      292.85955      21.937183      28.837454      294.60024     -128.28048      128528.22      129118.61      26361.105      102757.5     
    178000   178000         0.27732386     0.6621829      299.49568      287.41786      12.077817      28.838931      295.92862     -344.73769      127507.53      129094.12      26479.97       102614.15    
    179000   179000         0.27782359     0.39923624     301.91361      281.83695      20.076654      28.850422      294.95286      362.67419      130756.41      129087.27      26392.658      102694.61    
    180000   180000         0.27556536     0.17325321     320.8768       275.01924      45.857555      28.831521      296.77878      39.797253      129284.45      129101.29      26556.044      102545.24    
    181000   181000         0.27589499     0.3146433      310.20165      284.94284      25.258814      28.806309      295.65395     -12.283961      129163.36      129219.9       26455.393      102764.5     
    182000   182000         0.27665252     0.28689013     304.30394      276.53531      27.768629      28.796216      295.68949      270.84238      130311.85      129065.35      26458.572      102606.78    
    183000   183000         0.27813681     0.30265565     310.20007      283.7477       26.452366      28.784244      296.77043     -79.690591      128840.07      129206.83      26555.296      102651.53    
    184000   184000         0.27633097     0.27090868     317.46639      288.11196      29.354436      28.77843       296.73682     -259.69262      128116.81      129311.99      26552.289      102759.7     
    185000   185000         0.27733562     0.4225084      308.36064      289.47855      18.88209       28.766019      296.23995     -350.88263      127515.7       129130.56      26507.828      102622.74    
    186000   186000         0.27929505     0.21443397     321.46725      284.02362      37.44363       28.748042      297.00378      366.61689      131007.7       129320.41      26576.176      102744.24    
    187000   187000         0.2791226      0.22454728     314.44409      278.72977      35.714329      28.731301      294.47404     -3.8278047      129064.07      129081.68      26349.813      102731.87    
    188000   188000         0.28085684     0.20500537     313.76773      274.40543      39.362305      28.731662      294.92864     -455.02509      126969.2       129063.37      26390.491      102672.88    
    189000   189000         0.28335368     0.2595033      320.60131      289.21895      31.382361      28.740853      296.42579     -23.602064      129131.89      129240.52      26524.458      102716.06    
    190000   190000         0.27957116     0.30548208     317.38283      291.06186      26.320972      28.760425      297.87125     -373.2093       127534.24      129251.87      26653.798      102598.07    
    191000   191000         0.27637305     0.4365596      310.22062      292.01348      18.207147      28.760057      297.02545     -510.46926      127112.33      129461.67      26578.116      102883.55    
    192000   192000         0.28071607     0.33966531     313.65806      289.89024      23.767825      28.758972      297.12028      290.67451      130785.28      129447.51      26586.601      102860.91    
    193000   193000         0.27704059     0.22242347     323.42981      287.57817      35.851637      28.783672      299.01778      447.25386      131637.64      129579.24      26756.391      102822.85    
    194000   194000         0.28067463     0.26664908     317.90605      287.58867      30.317381      28.802396      296.54585      123.53713      129911.11      129342.55      26535.201      102807.35    
    195000   195000         0.28085857     0.21120317     311.05726      272.74166      38.315603      28.812995      298.81723      179.5751       130172.6       129346.14      26738.446      102607.69    
    196000   196000         0.28040246     0.40157195     307.96643      287.84341      20.123025      28.818729      298.38239     -253.58845      128331.99      129499.08      26699.536      102799.54    
    197000   197000         0.2811675      0.21789858     318.99929      281.81602      37.18327       28.81621       299.99112     -34.742068      129349.02      129508.91      26843.487      102665.43    
    198000   198000         0.28261502     0.24239113     317.02497      283.39041      33.63456       28.847437      299.59483     -190.33239      128650.98      129526.94      26808.026      102718.92    
    199000   199000         0.28160849     0.32622156     305.15118      280.2474       24.903781      28.849096      298.11802     -52.556062      129194.39      129436.27      26675.88       102760.39    
    200000   200000         0.28079226     0.24975368     321.43204      288.97307      32.458968      28.870976      299.95579      389.59098      131200.54      129407.52      26840.325      102567.2     
    201000   201000         0.27840235     0.36134428     305.01764      282.77038      22.247263      28.875192      296.09195     -207.85644      128480.24      129436.86      26494.585      102942.28    
    202000   202000         0.27864203     0.32144792     317.23625      292.21823      25.018014      28.861363      298.13147     -432.13969      127586.46      129575.3       26677.083      102898.22    
    203000   203000         0.28332787     0.50210319     302.28285      285.99724      16.285614      28.860765      295.90077     -245.99929      128244.31      129376.48      26477.478      102899       
    204000   204000         0.28277877     0.31315166     320.1966       294.10024      26.096365      28.899341      297.81134     -105.34974      129030.68      129515.53      26648.438      102867.09    
    205000   205000         0.28327958     0.21473218     317.2362       279.10189      38.134312      28.906651      297.91574     -361.4018       127603.66      129266.94      26657.78       102609.16    
    206000   206000         0.28290512     0.21729129     320.22957      282.58637      37.643201      28.912661      297.23895      18.719537      129558.45      129472.29      26597.22       102875.07    
    207000   207000         0.27743317     0.33876515     310.63385      286.95562      23.678229      28.91276       297.8654      -132.96266      128914.38      129526.32      26653.275      102873.04    
    208000   208000         0.2797103      0.20347958     327.6183       287.87817      39.740136      28.909575      298.0316       334.44045      130982.7       129443.5       26668.147      102775.35    
    209000   209000         0.27979529     0.37768008     310.53056      289.09623      21.434329      28.933008      295.68895     -204.58226      128386.34      129327.89      26458.525      102869.36    
    210000   210000         0.27893642     0.24984528     310.59132      278.25898      32.332337      28.960298      296.50226      315.55741      130762.65      129310.36      26531.3        102779.06    
    211000   211000         0.27966792     0.25649694     311.02967      279.42844      31.601232      28.983014      298.07791     -41.248413      129152.14      129341.97      26672.291      102669.68    
    212000   212000         0.28002702     0.18982168     326.60443      283.8254       42.779029      28.998584      297.20644     -541.18374      127137.13      129627.82      26594.31       103033.51    
    213000   213000         0.27666977     0.22949228     316.81732      281.85527      34.962044      29.000347      297.87808     -78.73753       129228.5       129590.88      26654.41       102936.47    
    214000   214000         0.27601226     0.30536478     305.56391      279.34731      26.216604      29.004609      295.13398      290.95097      130746.93      129407.88      26408.865      102999.02    
    215000   215000         0.27995772     0.28247175     313.44018      284.71251      28.727677      28.985652      297.22155     -455.01877      127387.03      129481.17      26595.663      102885.5     
    216000   216000         0.27714208     0.30692477     313.87691      287.69737      26.179532      28.992881      300.12594      192.01019      130622.05      129738.36      26855.551      102882.81    
    217000   217000         0.27854399     0.28451152     319.03435      290.66111      28.37324       28.981109      298.57527     -828.89487      125778.53      129593.36      26716.795      102876.56    
    218000   218000         0.28058067     0.3743787      306.92047      285.1946       21.725864      28.988814      297.88221      744.69283      133056.21      129628.9       26654.779      102974.12    
    219000   219000         0.27844419     0.3610864      314.08774      291.74091      22.346821      28.979356      298.18813     -15.28068       129621.53      129691.86      26682.153      103009.71    
    220000   220000         0.28011908     0.34368671     319.09605      295.46691      23.629139      28.991317      298.13556     -288.54022      128340.54      129668.49      26677.449      102991.05    
    221000   221000         0.27978093     0.30013455     319.39186      292.37487      27.016985      28.982428      297.2822      -186.5493       128849.95      129708.51      26601.089      103107.42    
    222000   222000         0.2791654      0.48479459     310.44852      293.75699      16.691526      28.986262      296.4523       362.01842      131231         129564.88      26526.829      103038.05    
    223000   223000         0.28042655     0.26681225     317.14765      286.70711      30.440545      28.962701      299.00774     -774.90518      125965.75      129532.1       26755.493      102776.61    
    224000   224000         0.27657685     0.32314822     313.98165      289.18011      24.801538      28.977742      298.49284      97.644602      129862.12      129412.73      26709.419      102703.31    
    225000   225000         0.27849857     0.48201559     305.18142      288.4459       16.735517      28.965249      297.92149     -438.65545      127615.62      129634.45      26658.294      102976.16    
    226000   226000         0.27860823     0.29667811     316.63108      289.41975      27.211337      28.976201      299.91371     -64.568719      129214.27      129511.44      26836.559      102674.88    
    227000   227000         0.28100252     0.29634104     315.25323      287.78273      27.4705        28.969978      297.47074      139.03874      130111.18      129471.28      26617.961      102853.32    
    228000   228000         0.27896217     0.23324487     322.17563      287.52537      34.650265      28.971659      297.70765      444.89821      131524.98      129477.42      26639.159      102838.26    
    229000   229000         0.2783853      0.24461891     317.84908      284.89847      32.950602      28.953901      297.91654      63.15026       129891.56      129600.93      26657.851      102943.08    
    230000   230000         0.28113036     0.22062989     324.69294      287.7818       36.91114       28.967703      296.84397      30.238848      129533.25      129394.08      26561.877      102832.2     
    231000   231000         0.27902447     0.25093008     316.8111       284.57391      32.23719       28.991295      296.07799      72.187607      129562.89      129230.66      26493.336      102737.32    
    232000   232000         0.27843055     0.2505648      315.00257      282.78101      32.221563      28.996781      295.18956      5.2541923      129104.63      129080.44      26413.838      102666.61    
    233000   233000         0.2831243      0.21674364     324.44815      286.55919      37.888958      29.005602      297.23616      352.26728      130908.76      129287.52      26596.97       102690.55    
    234000   234000         0.280856       0.80854167     308.51138      298.43058      10.080795      29.021075      296.96057      53.27934       129554.69      129309.48      26572.31       102737.17    
    235000   235000         0.28234928     0.27578254     316.35463      286.63845      29.716187      29.025063      294.98586     -276.01182      127893.15      129163.44      26395.611      102767.83    
    236000   236000         0.28178125     0.21683082     316.5173       278.76233      37.754971      29.05247       294.79179     -73.549683      128780.82      129119.32      26378.245      102741.08    
    237000   237000         0.28071549     0.25170489     319.28151      286.85976      32.421743      29.071111      296.83996     -348.87663      127733.05      129338.69      26561.518      102777.17    
    238000   238000         0.27932582     0.18044618     316.76424      271.78988      44.974357      29.053709      294.92434     -192.44405      128225.33      129111.01      26390.106      102720.91    
    239000   239000         0.28048325     0.23546417     322.31653      287.6946       34.621934      29.064926      295.07033     -324.35138      127512.15      129004.91      26403.169      102601.74    
    240000   240000         0.28155995     0.33553807     312.53831      288.1541       24.384211      29.058931      294.02508      88.090853      129544.19      129138.77      26309.64       102829.13    
    241000   241000         0.28203702     0.15294265     328.24493      274.6579       53.587021      29.059097      295.94815     -257.8911       127964.38      129151.27      26481.718      102669.56    
    242000   242000         0.27910365     0.26177492     315.8934       284.89256      31.000844      29.076092      298.41719      412.73031      131173.21      129273.7       26702.649      102571.05    
    243000   243000         0.28133311     0.85118812     303.67977      294.07307      9.6066936      29.065557      294.78554      126.52905      129827.01      129244.69      26377.687      102867       
    244000   244000         0.28093604     0.30325051     307.54857      280.64817      26.900391      29.037063      294.72392     -422.21501      127164.65      129107.81      26372.173      102735.64    
    245000   245000         0.28101631     0.22214707     321.183        284.42938      36.75362       29.054217      296.04784     -50.539054      129140.29      129372.89      26490.638      102882.25    
    246000   246000         0.28245261     0.24773756     310.45073      277.33383      33.116903      29.046645      295.99889      154.27918      129879.89      129169.85      26486.258      102683.6     
    247000   247000         0.28379727     0.24935664     316.56119      283.50537      33.055811      29.044275      296.90975     -339.26506      127486.35      129047.75      26567.762      102479.99    
    248000   248000         0.28091535     0.29757138     309.7343       282.32031      27.413988      29.039418      295.52538      663.16811      132224.58      129172.48      26443.888      102728.59    
    249000   249000         0.28196299     0.25165367     314.08422      281.54623      32.537984      29.040348      294.39589     -61.271169      128675.39      128957.38      26342.82       102614.56    
    250000   250000         0.28239475     0.29532053     318.51488      290.72624      27.788643      29.060585      296.89654      586.18165      131745.92      129048.13      26566.581      102481.55    
    251000   251000         0.28128213     0.24855326     313.19646      280.29782      32.898642      29.070687      294.94822      352.96422      130617.31      128992.86      26392.243      102600.62    
    252000   252000         0.28170744     0.36970733     302.22724      280.09336      22.133883      29.048074      294.17483     -102.80366      128600.21      129073.34      26323.04       102750.3     
    253000   253000         0.28143163     0.32262747     309.51521      284.18925      25.325961      29.033164      298.35606      128.28845      129810.9       129220.47      26697.18       102523.29    
    254000   254000         0.28328169     0.34751997     314.62029      290.96066      23.65963       29.024798      296.89216     -265.18871      127915.31      129135.79      26566.189      102569.6     
    255000   255000         0.28158755     0.29590651     311.57516      283.9481       27.62706       29.031919      294.83023      441.85377      131113.75      129080.2       26381.685      102698.52    
    256000   256000         0.2786765      0.22908866     321.33437      286.00839      35.325979      29.040057      297.61393      217.38379      130207.86      129207.4       26630.774      102576.62    
    257000   257000         0.28052446     0.20552145     316.65274      277.01808      39.634656      29.037652      296.60756     -139.9508       128580.27      129224.37      26540.723      102683.64    
    258000   258000         0.27870181     0.29818518     314.24383      287.09924      27.144597      29.042211      295.5651      -194.99598      128292.85      129190.28      26447.442      102742.84    
    259000   259000         0.27950636     0.23927536     317.94674      284.0309       33.915842      29.034134      296.56891     -518.94214      126795.84      129184.17      26537.264      102646.9     
    260000   260000         0.27913064     0.38490404     318.97333      297.91699      21.05634       29.035402      296.58129      691.92032      132504.08      129319.65      26538.372      102781.28    
    261000   261000         0.28245449     0.19729922     325.67273      284.09278      41.579942      29.04429       296.46734      246.40534      130349.07      129215.04      26528.175      102686.87    
    262000   262000         0.28048022     0.25431224     312.52878      280.48992      32.038861      29.049731      297.02074      858.16587      133015.3       129065.76      26577.694      102488.07    
    263000   263000         0.28179071     0.28358599     317.40326      288.53239      28.870871      29.054806      295.25524      47.018523      129318.79      129102.4       26419.715      102682.68    
    264000   264000         0.28165797     0.2631342      308.58257      277.47188      31.110689      29.064636      294.52215     -114.42278      128389.37      128915.98      26354.118      102561.86    
    265000   265000         0.2803359      0.25331387     315.30262      283.12784      32.174779      29.073399      295.50735      167.07514      129806.93      129038         26442.274      102595.73    
    266000   266000         0.28064646     0.41533908     309.48066      289.83739      19.643267      29.070797      295.55052     -291.65193      127625.39      128967.67      26446.138      102521.53    
    267000   267000         0.2804415      0.28436764     315.17883      286.51417      28.664664      29.065965      293.25939     -123.73465      128442.12      129011.58      26241.125      102770.46    
    268000   268000         0.28060265     0.25675782     319.56566      287.80168      31.763976      29.064762      294.4261      -584.57636      126219.06      128909.46      26345.523      102563.93    
    269000   269000         0.28156861     0.23852689     314.78045      280.47277      34.307678      29.063267      295.54778     -345.71411      127472.97      129064.05      26445.893      102618.16    
    270000   270000         0.28100581     0.29342456     308.25072      280.42938      27.821335      29.050869      295.17046     -34.23947       128999.28      129156.86      26412.129      102744.73    
    271000   271000         0.28170775     0.24346526     317.22529      283.62088      33.604406      29.042528      296.00845     -458.16923      126951.42      129060.05      26487.114      102572.94    
    272000   272000         0.28337351     0.3097175      309.89614      283.31638      26.579759      29.050763      296.32424      452.62958      131217.57      129134.43      26515.371      102619.06    
    273000   273000         0.28306997     0.2959674      316.72749      288.94289      27.784602      29.050543      295.68191     -577.35046      126518.17      129175.32      26457.894      102717.42    
    274000   274000         0.28227131     0.41677657     310.1276       290.4626       19.665001      29.035582      295.3934      -32.514081      128931.86      129081.5       26432.078      102649.43    
    275000   275000         0.28070719     0.33255638     315.5231       291.01901      24.504099      29.030231      296.44952     -327.67356      127698.57      129206.62      26526.581      102680.04    
    276000   276000         0.28392765     0.2415884      322.1946       288.06155      34.133046      29.043131      297.64232      1023.3952      134049.95      129339.97      26633.314      102706.66    
    277000   277000         0.28259439     0.41688253     307.51106      287.82227      19.688793      29.044858      296.1222       13.203151      129252.15      129191.39      26497.292      102694.1     
    278000   278000         0.28237272     0.24960533     313.18707      280.3458       32.841273      29.030272      297.77794     -372.09728      127549.18      129261.68      26645.449      102616.23    
    279000   279000         0.28261982     0.29600524     312.84818      285.12309      27.72509       29.038205      296.07197      250.4836       130517.76      129364.96      26492.797      102872.16    
    280000   280000         0.2830675      0.1897903      330.75783      287.41359      43.344244      29.061328      298.1379      -273.99723      128340.74      129601.76      26677.658      102924.1     
    281000   281000         0.28167425     0.26469763     309.63368      278.70882      30.924866      29.061013      298.92098     -502.88039      127302.15      129616.56      26747.73       102868.83    
    282000   282000         0.28066281     0.4517723      305.58236      287.54099      18.041371      29.040512      296.06679     -539.00283      127007.55      129488.21      26492.333      102995.87    
    283000   283000         0.28258491     0.16539191     322.08291      272.45777      49.625135      29.044706      297.88795      427.55425      131433.75      129466.01      26655.293      102810.72    
    284000   284000         0.28058611     0.46302705     308.35029      290.7579       17.592397      29.031216      297.78877     -21.993679      129322.15      129423.38      26646.418      102776.96    
    285000   285000         0.28092184     0.23429714     315.71717      280.91595      34.801219      29.025247      297.32658      79.44171       129615.18      129249.57      26605.061      102644.51    
    286000   286000         0.28029798     0.33395456     317.62639      293.25705      24.369342      29.034289      297.30915      19.091385      129418.55      129330.68      26603.501      102727.18    
    287000   287000         0.28310552     0.39512895     308.06414      287.26235      20.801791      29.032955      294.51635     -44.715215      129077.51      129283.3       26353.599      102929.7     
    288000   288000         0.28123993     0.35328661     307.30329      284.19369      23.109602      29.029708      295.25078     -430.68455      127160.74      129142.88      26419.317      102723.57    
    289000   289000         0.28225152     0.28454554     311.72584      282.93128      28.794558      29.028588      296.82144      84.703035      129648.68      129258.85      26559.86       102698.99    
    290000   290000         0.2824628      0.27102105     315.50946      285.26228      30.24718       29.021955      298.02271     -338.0379       127817.62      129373.37      26667.352      102706.02    
    291000   291000         0.27892772     0.27212957     312.96284      283.20635      29.756488      29.031251      295.65268     -52.334759      129099.57      129340.43      26455.279      102885.15    
    292000   292000         0.27863653     0.18501498     313.56318      269.82141      43.741772      29.044588      295.83059      330.22046      130775.14      129255.36      26471.198      102784.17    
    293000   293000         0.2775888      0.35085029     299.70661      276.72483      22.981781      29.047154      297.76498     -131.88         128857.54      129464.49      26644.289      102820.2     
    294000   294000         0.27720238     0.33293464     312.96384      288.77762      24.186226      29.04893       300.43351      342.46089      131159.51      129583.4       26883.072      102700.33    
    295000   295000         0.27680815     0.27427013     307.45489      278.1472       29.30769       29.038972      297.82084      526.59447      131971.12      129547.57      26649.288      102898.28    
    296000   296000         0.27715962     0.31365302     318.78434      293.1194       25.664943      29.044226      299.58552      154.54212      130463.61      129752.36      26807.193      102945.17    
    297000   297000         0.27615913     0.48834282     301.39354      284.9672       16.426333      29.047316      298.39696     -674.63318      126513.3       129618.17      26700.84       102917.33    
    298000   298000         0.27611074     0.36088005     307.18277      284.96499      22.217784      29.038911      295.93418     -135.20555      128923.81      129546.06      26480.468      103065.6     
    299000   299000         0.27597011     0.29923131     315.61113      288.84103      26.770093      29.026513      298.69822      325.15762      131101.58      129605.1       26727.796      102877.3     
    300000   300000         0.2776909      0.25297463     314.04835      282.17766      31.870692      29.033996      298.2753      -198.36945      128816.82      129729.78      26689.953      103039.82    
    301000   301000         0.27754752     0.3297917      310.11028      285.6729       24.437378      29.03735       298.13722      285.66409      130914.27      129599.55      26677.598      102921.96    
    302000   302000         0.27875703     0.29154064     305.248        277.4843       27.763707      29.036933      296.41056     -320.0947       127980.46      129453.63      26523.094      102930.54    
    303000   303000         0.27867762     0.24343995     317.37265      284.13988      33.232764      29.030614      297.41891     -93.308247      129036.41      129465.84      26613.323      102852.52    
    304000   304000         0.27678526     0.60353427     308.09108      294.7748       13.316275      29.036331      296.38389     -115.69977      129047.78      129580.26      26520.708      103059.56    
    305000   305000         0.276064       0.94483135     298.88724      290.40231      8.4849241      29.039724      298.3399      -650.05716      126635.61      129627.37      26695.734      102931.63    
    306000   306000         0.27640934     0.57093986     301.58293      287.52899      14.053942      29.029249      296.96417     -322.43685      127968.53      129452.49      26572.633      102879.85    
    307000   307000         0.27787236     0.22407431     317.42664      281.42383      36.002806      29.032409      299.04811      293.23664      130850.34      129500.77      26759.105      102741.67    
    308000   308000         0.27557564     0.21884528     322.28136      285.72006      36.561301      29.034743      298.79519     -480.39982      127340.41      129551.36      26736.474      102814.88    
    309000   309000         0.27480901     0.23947758     326.89135      293.59031      33.301035      29.019614      299.8957       289.70441      130976.28      129642.97      26834.949      102808.02    
    310000   310000         0.27485196     0.46109849     311.42669      294.1367       17.289995      29.006126      298.01545      94.455215      129907.56      129472.85      26666.701      102806.15    
    311000   311000         0.27802346     0.23620059     307.75263      273.59801      34.154623      29.016769      296.32518      235.53625      130416.65      129332.64      26515.455      102817.19    
    312000   312000         0.27843619     0.31269512     307.68731      281.85354      25.833763      29.012363      296.67036      160.4359       130208.38      129470.01      26546.342      102923.67    
    313000   313000         0.27882409     0.2470352      312.47102      279.73073      32.740294      29.007554      296.57041      415.45083      131177.67      129265.64      26537.398      102728.24    
    314000   314000         0.27939996     0.28635957     313.35228      285.03147      28.320801      29.026247      296.50057      21.857611      129481.32      129380.73      26531.149      102849.58    
    315000   315000         0.27778946     0.33195235     311.05924      286.77163      24.287609      29.023163      297.79068     -110.61788      128686.46      129195.56      26646.589      102548.97    
    316000   316000         0.27787359     0.25732005     319.08205      287.72968      31.352366      29.033317      296.007       -930.80912      124929.02      129212.88      26486.984      102725.9     
    317000   317000         0.27797702     0.39516028     315.1361       294.71229      20.423808      29.033615      295.61426     -369.08811      127463.68      129162.34      26451.841      102710.5     
    318000   318000         0.27686051     0.45394167     301.4134       283.70556      17.707842      29.033853      296.32493      277.50439      130459.79      129182.63      26515.432      102667.19    
[...]
   1432000   1432000        0.27186077     0.26733751     316.26187      286.64727      29.614604      29.121872      301.60493     -275.7192       128610.84      129879.78      26987.892      102891.89    
   1433000   1433000        0.27199981     0.23015383     320.23143      285.81631      34.415125      29.120508      297.06381     -29.558978      129686.76      129822.8       26581.548      103241.25    
   1434000   1434000        0.27228277     0.47051622     305.44392      288.59312      16.850801      29.118901      298.9097      -369.07102      127985.61      129684.18      26746.72       102937.46    
   1435000   1435000        0.27248052     0.31359716     313.02835      287.72684      25.301509      29.119444      300.32607      347.87995      131455.29      129854.24      26873.458      102980.78    
   1436000   1436000        0.27245145     0.22291175     318.17349      282.58391      35.589584      29.11835       298.82988     -371.24232      128156.28      129864.85      26739.577      103125.28    
   1437000   1437000        0.27246223     0.21965754     309.87104      273.75466      36.116376      29.116823      299.46387     -283.8146       128590.01      129896.21      26796.308      103099.9     
   1438000   1438000        0.27232679     0.28727627     314.10306      286.4992       27.603857      29.11918       299.71206      2.8677306      129978.98      129965.79      26818.516      103147.27    
   1439000   1439000        0.2723495      0.2506856      311.3596       279.72207      31.637535      29.120943      300.98498      426.60624      131785.4       129822.03      26932.418      102889.61    
   1440000   1440000        0.27234253     0.21138184     321.3874       283.8658       37.5216        29.122828      299.70756     -812.81797      126133.24      129874.08      26818.113      103055.96    
   1441000   1441000        0.27238602     0.33576989     316.78105      293.15734      23.623709      29.120915      300.55053     -295.78148      128452.16      129813.43      26893.543      102919.89    
   1442000   1442000        0.27194327     0.27622318     318.02329      289.35363      28.669664      29.120875      301.21035      716.27032      133091.22      129794.72      26952.584      102842.14    
   1443000   1443000        0.27217497     0.33613629     312.8734       289.29243      23.580968      29.122513      299.30209     -280.85097      128396.75      129689.31      26781.831      102907.48    
   1444000   1444000        0.27255631     0.23016483     319.13077      284.64201      34.488763      29.124626      299.2321      -172.19036      129001.87      129794.34      26775.569      103018.78    
   1445000   1445000        0.27231545     0.31794685     317.3026       292.3573       24.945295      29.125333      301.61744      15.292038      129732.06      129661.68      26989.011      102672.67    
   1446000   1446000        0.27224102     0.21722138     318.45362      281.94908      36.504535      29.127004      297.89918      171.26369      130379.68      129591.47      26656.298      102935.17    
   1447000   1447000        0.27237749     0.24659625     319.8546       287.68277      32.171826      29.126678      298.92087     -35.56098       129600.8       129764.46      26747.719      103016.74    
   1448000   1448000        0.27208149     0.28353333     315.62693      287.67468      27.952252      29.128755      299.87633      127.55118      130321.47      129734.44      26833.215      102901.23    
   1449000   1449000        0.27147491     0.36153125     313.84092      291.96979      21.871129      29.126436      298.23586     -56.744101      129431.84      129692.99      26686.424      103006.57    
   1450000   1450000        0.27222344     0.28797463     315.36941      287.83695      27.532469      29.125532      298.08077     -122.68001      129122.62      129687.23      26672.547      103014.68    
   1451000   1451000        0.2719614      0.36126481     308.2551       286.33036      21.924741      29.124123      298.66211     -287.87401      128273.9       129598.79      26724.565      102874.22    
   1452000   1452000        0.27199775     0.23723723     321.16509      287.77541      33.389683      29.12258       298.81982     -349.39706      128032.55      129640.58      26738.677      102901.9     
   1453000   1453000        0.27171299     0.77547294     307.06796      296.86481      10.203154      29.119953      298.21376      153.23887      130311.58      129606.33      26684.447      102921.88    
   1454000   1454000        0.27198965     0.24609754     317.10201      284.9199       32.182106      29.118524      298.44923     -521.12571      127140.53      129538.91      26705.517      102833.39    
   1455000   1455000        0.27185079     0.22831185     308.06046      273.38706      34.673397      29.120192      296.49279     -524.24362      127150.22      129562.95      26530.453      103032.49    
   1456000   1456000        0.27192271     0.21217633     315.32846      278.00829      37.320178      29.120254      298.5062       446.61599      131709.97      129654.51      26710.614      102943.89    
   1457000   1457000        0.27198132     0.19074721     320.49135      278.96685      41.524502      29.122158      297.79099      31.769885      129677.9       129531.68      26646.617      102885.07    
   1458000   1458000        0.27175962     0.66614144     302.43983      290.55868      11.881152      29.123265      296.38452      218.93483      130547.75      129540.15      26520.765      103019.38    
   1459000   1459000        0.27163167     0.32158666     317.11349      292.51431      24.599186      29.123151      297.64597      132.50519      130013.28      129403.45      26633.64       102769.81    
   1460000   1460000        0.27175493     0.29167304     314.12129      286.98766      27.133627      29.122369      294.62021     -1216.5555      123626.79      129225.75      26362.892      102862.86    
   1461000   1461000        0.27182141     0.18638152     316.56478      274.09179      42.472984      29.122722      296.91468     -286.5771       127919.88      129238.79      26568.204      102670.59    
   1462000   1462000        0.27143084     0.21729524     320.71687      284.33981      36.377065      29.121831      293.73774     -556.578        126657.96      129219.5       26283.928      102935.57    
   1463000   1463000        0.27120059     0.28040169     312.47681      284.30992      28.166888      29.122513      296.01493      162.35973      129887.59      129140.36      26487.694      102652.67    
   1464000   1464000        0.27154155     0.18239225     317.82624      274.46562      43.360617      29.124973      293.63833     -111.82652      128609.22      129123.88      26275.033      102848.85    
   1465000   1465000        0.27103796     0.3167748      302.78417      277.86112      24.923057      29.128747      295.23775      574.48141      132002.09      129358.15      26418.151      102940       
   1466000   1466000        0.27133152     0.34166293     312.17713      289.04291      23.134229      29.130815      296.78073      360.32032      131031.23      129372.93      26556.217      102816.71    
   1467000   1467000        0.2711425      0.25191088     318.67662      287.32341      31.353206      29.129383      298.21537      16.997119      129560.55      129482.32      26684.591      102797.73    
   1468000   1468000        0.27094783     0.26696685     309.16572      279.6025       29.563221      29.128855      296.2037      -560.74872      126678.56      129259.3       26504.584      102754.71    
   1469000   1469000        0.27105913     0.31504931     314.98589      289.92289      25.063         29.130472      294.88934     -265.55534      128057.89      129280.05      26386.974      102893.08    
   1470000   1470000        0.27097724     0.41183562     307.1006       287.9351       19.165496      29.128032      294.92843      341.16758      130790.34      129220.18      26390.472      102829.71    
   1471000   1471000        0.27093218     0.33505405     313.70299      290.15214      23.550856      29.124667      298.14538      305.86869      130709.46      129301.76      26678.328      102623.43    
   1472000   1472000        0.27105881     0.28129718     311.00914      282.94577      28.063373      29.123376      296.04656     -88.213923      128767.65      129173.64      26490.524      102683.12    
   1473000   1473000        0.2710662      0.40123534     306.27899      286.60523      19.673756      29.121323      297.70598     -435.54819      127345.47      129349.99      26639.01       102710.99    
   1474000   1474000        0.27105213     0.31348115     310.64897      285.47209      25.176884      29.117937      296.2313       26.539673      129282.9       129160.76      26507.054      102653.7     
   1475000   1475000        0.27128089     0.22913542     314.17235      279.70056      34.471793      29.116347      295.78511      768.07234      132770.94      129236.03      26467.129      102768.9     
   1476000   1476000        0.27148644     0.17620877     325.08656      280.22725      44.859315      29.11602       298.87134      129.83358      130008.05      129410.52      26743.287      102667.23    
   1477000   1477000        0.2710502      0.34450273     316.6883       293.78093      22.907371      29.115094      296.69883     -229.29241      128254         129309.28      26548.89       102760.39    
   1478000   1478000        0.27102651     0.30547495     310.69809      284.86868      25.829416      29.112427      295.39826     -998.51322      124532.84      129128.3       26432.513      102695.79    
   1479000   1479000        0.27122272     0.2134114      321.35255      284.35167      37.000877      29.114114      296.53975      55.900532      129834.41      129577.14      26534.655      103042.48    
   1480000   1480000        0.27120053     0.19386411     315.21384      274.48658      40.727261      29.113344      296.91615      80.160614      129887.46      129518.53      26568.336      102950.2     
   1481000   1481000        0.2712453      0.23882443     320.51625      287.44973      33.066519      29.114209      297.47505     -239.94853      128528.83      129633.15      26618.346      103014.8     
   1482000   1482000        0.27145178     0.33289601     304.8816       281.13894      23.742654      29.116901      296.33567     -1414.7088      123101.64      129612.56      26516.394      103096.16    
   1483000   1483000        0.27125739     0.20968166     317.86878      280.1984       37.670378      29.11916       301.39477      277.77327      130958.13      129679.73      26969.086      102710.65    
   1484000   1484000        0.27124424     0.28174121     308.29878      280.26311      28.03567       29.120632      298.31795     -97.124189      129166.32      129613.32      26693.77       102919.55    
   1485000   1485000        0.27145732     0.16916194     318.55921      271.8265       46.732718      29.122063      295.99896     -397.79546      127824.91      129655.69      26486.264      103169.42    
   1486000   1486000        0.27125395     0.62897275     300.11729      287.55797      12.559324      29.122056      298.73237     -127.33611      129072.86      129658.9       26730.853      102928.05    
   1487000   1487000        0.27092409     0.24325411     322.27143      289.83877      32.432659      29.120252      297.80875     -100.22074      129270.91      129732.16      26648.206      103083.95    
   1488000   1488000        0.27076159     0.30530695     315.17908      289.3536       25.825481      29.120448      299.92373      419.71003      131708.31      129776.68      26837.456      102939.22    
   1489000   1489000        0.27092278     0.17816098     321.20916      276.92607      44.283089      29.120913      297.33796     -387.18028      127959.75      129741.67      26606.079      103135.6     
   1490000   1490000        0.2707147      0.48216618     309.15365      292.8044       16.349254      29.11943       299.33923     -208.34674      128824.39      129783.26      26785.154      102998.11    
   1491000   1491000        0.27071887     0.29116        306.12809      279.05201      27.076077      29.120506      300.13501      6.1433137      129737.23      129708.95      26856.362      102852.59    
   1492000   1492000        0.27042911     0.54988956     307.98278      293.66184      14.320934      29.120134      299.37063      57.661766      130010.1       129744.72      26787.965      102956.76    
   1493000   1493000        0.27057395     0.24887006     324.8712       293.21187      31.659336      29.119805      299.95771      403.49868      131616.56      129759.53      26840.497      102919.04    
   1494000   1494000        0.27078868     0.30039012     309.53268      283.28415      26.248533      29.117908      298.40863     -71.404519      129269.61      129598.24      26701.883      102896.35    
   1495000   1495000        0.27068829     0.3488246      305.33589      282.74231      22.593582      29.115396      297.86612      97.198133      130006.11      129558.78      26653.34       102905.44    
   1496000   1496000        0.27059754     0.30846264     312.96872      287.42831      25.540408      29.114314      296.62863     -572.31203      126888.77      129522.73      26542.607      102980.12    
   1497000   1497000        0.27070779     0.38587533     310.52838      290.10386      20.424517      29.113744      296.67265     -98.211154      128944.33      129396.33      26546.547      102849.78    
   1498000   1498000        0.27074778     0.24273016     320.46556      287.99265      32.472907      29.112534      297.23794     -318.14501      127885.2       129349.4       26597.13       102752.27    
   1499000   1499000        0.27066253     0.17070777     333.41949      287.26064      46.158859      29.112548      297.06171     -676.33213      126201.48      129314.17      26581.36       102732.81    
   1500000   1500000        0.27095387     0.164036       322.96689      274.87458      48.092303      29.115175      296.88762     -725.03852      126031.12      129367.97      26565.783      102802.19    
   1501000   1501000        0.27076865     0.28104727     314.70381      286.6514       28.052407      29.117301      296.37457     -52.37026       129158.81      129399.83      26519.874      102879.96    
   1502000   1502000        0.27105489     0.20424536     313.5798       274.93969      38.640107      29.116105      296.33952     -222.6661       128487.54      129512.32      26516.738      102995.58    
   1503000   1503000        0.27083831     0.8005735      301.2036       291.35283      9.8507745      29.117996      297.48589      154.18664      130253.51      129543.9       26619.316      102924.58    
   1504000   1504000        0.27066852     0.20982695     314.91396      277.35288      37.561076      29.118001      297.79012      453.56954      131677.44      129589.97      26646.539      102943.44    
   1505000   1505000        0.27054229     0.51662315     309.64614      294.39996      15.246187      29.11387       298.16438     -288.80202      128233.72      129562.87      26680.028      102882.84    
   1506000   1506000        0.27088712     0.33949949     308.17915      284.94958      23.229572      29.113336      296.86073     -438.54357      127459.41      129477.72      26563.376      102914.35    
   1507000   1507000        0.27105582     0.2213914      322.19486      286.55234      35.642517      29.111888      298.79784     -547.01845      127241.27      129758.82      26736.711      103022.11    
   1508000   1508000        0.2709129      0.39854707     308.89497      289.10444      19.790526      29.114361      299.24652     -67.344477      129443.8       129753.74      26776.859      102976.88    
   1509000   1509000        0.27117388     0.39176579     305.00456      284.85274      20.151822      29.113402      296.85942      186.86393      130448.7       129588.69      26563.259      103025.43    
   1510000   1510000        0.27106979     0.19827601     320.03463      280.22887      39.805756      29.116215      298.22392     -481.02045      127342.88      129556.68      26685.356      102871.33    
   1511000   1511000        0.27066524     0.25941353     315.64475      285.26361      30.381144      29.118182      297.97067      30.87777       129745.4       129603.29      26662.694      102940.6     
   1512000   1512000        0.27083216     0.25578709     320.54347      289.71047      30.833005      29.120194      298.49272     -251.19034      128553.43      129709.48      26709.408      103000.08    
   1513000   1513000        0.27055296     0.22400607     318.23702      283.06494      35.172077      29.120948      298.40994     -307.80524      128173.77      129590.39      26702.001      102888.39    
   1514000   1514000        0.27080089     0.18440235     323.26045      280.49438      42.766066      29.12163       296.17938      341.34198      130964.49      129393.53      26502.408      102891.12    
   1515000   1515000        0.27098881     0.20588322     315.05069      276.72106      38.32963       29.120861      296.60127     -125.8746       128952.62      129531.93      26540.16       102991.77    
   1516000   1516000        0.27068086     0.26102494     318.39695      288.19722      30.19973       29.122423      301.58364      6.3493939      129714.41      129685.19      26985.986      102699.2     
   1517000   1517000        0.27073901     0.70090045     315.96981      304.72048      11.249327      29.122728      298.56722      42.278044      129940.64      129746.07      26716.075      103029.99    
   1518000   1518000        0.27105346     0.35589448     312.5564       290.37616      22.180245      29.122768      298.48583     -341.51099      127982.27      129554.01      26708.792      102845.22    
   1519000   1519000        0.27093674     0.21139649     317.83187      280.50972      37.322145      29.120341      297.97001     -314.1194       128038.03      129483.7       26662.636      102821.06    
   1520000   1520000        0.27095547     0.20883667     317.09642      279.31787      37.778553      29.117505      296.73797      60.149207      129694.84      129418.02      26552.391      102865.63    
   1521000   1521000        0.27076436     1.0273818      293.00038      285.32675      7.6736304      29.116641      297.47028      146.70609      130101.3       129426.11      26617.919      102808.19    
Loop time of 22181.6 on 32 procs for 1500000 steps with 30020 atoms

Performance: 5.843 ns/day, 4.108 hours/ns, 67.624 timesteps/s, 2.030 Matom-step/s
99.5% CPU use with 32 MPI tasks x 1 OpenMP threads

MPI task timing breakdown:
Section |  min time  |  avg time  |  max time  |%varavg| %total
---------------------------------------------------------------
Pair    | 9583.4     | 10589      | 11882      | 547.0 | 47.74
Bond    | 232.6      | 250.43     | 266.13     |  58.9 |  1.13
Kspace  | 7567.3     | 8813.8     | 9887.1     | 608.3 | 39.73
Neigh   | 759.51     | 783.4      | 807.16     |  48.8 |  3.53
Comm    | 1089.2     | 1319.5     | 1514       | 291.1 |  5.95
Output  | 0.29694    | 0.32229    | 0.72588    |  12.8 |  0.00
Modify  | 267.91     | 377.74     | 519.47     | 445.9 |  1.70
Other   |            | 47.16      |            |       |  0.21

Nlocal:        938.125 ave         980 max         874 min
Histogram: 1 0 2 2 6 5 4 4 5 3
Nghost:        10715.7 ave       10853 max       10556 min
Histogram: 1 3 4 5 3 1 2 3 7 3
Neighs:         512853 ave      563888 max      469215 min
Histogram: 3 2 5 3 4 7 2 2 3 1

Total # of neighbors = 16411311
Ave neighs/atom = 546.67925
Ave special neighs/atom = 10.787475
Neighbor list builds = 58745
Dangerous builds = 0
Total wall time: 6:14:49
